# vtk DataFile Version 2.0
Wing Example
ASCII
DATASET UNSTRUCTURED_GRID
POINTS 400 double64
5.16398 0 0
5.17185 0.143771 -0.815365
5.17973 0.287542 -1.63073
5.18761 0.431313 -2.44609
5.19548 0.575083 -3.26146
5.20336 0.718854 -4.07682
5.21124 0.862625 -4.89219
5.21911 1.0064 -5.70755
5.22699 1.15017 -6.52292
5.23487 1.29394 -7.33828
5.24274 1.43771 -8.15365
5.25062 1.58148 -8.96901
5.2585 1.72525 -9.78438
5.26637 1.86902 -10.5997
5.27425 2.01279 -11.4151
5.28213 2.15656 -12.2305
5.29 2.30033 -13.0458
5.29788 2.4441 -13.8612
5.30576 2.58788 -14.6766
5.31363 2.73165 -15.4919
5.0338 0.0705706 0
5.04409 0.210699 -0.815365
5.05446 0.35091 -1.63073
5.06491 0.491205 -2.44609
5.07545 0.631584 -3.26146
5.08607 0.772052 -4.07682
5.09676 0.912608 -4.89219
5.10753 1.05325 -5.70755
5.11838 1.19399 -6.52292
5.12929 1.33482 -7.33828
5.14027 1.47575 -8.15365
5.15131 1.61677 -8.96901
5.16242 1.75789 -9.78438
5.17358 1.89911 -10.5997
5.1848 2.04042 -11.4151
5.19608 2.18184 -12.2305
5.2074 2.32336 -13.0458
5.21877 2.46498 -13.8612
5.23019 2.6067 -14.6766
5.24164 2.74853 -15.4919
4.65545 0.257514 0
4.673 0.387831 -0.815365
4.69088 0.518457 -1.63073
4.70906 0.649398 -2.44609
4.72754 0.780659 -3.26146
4.74631 0.912248 -4.07682
4.76537 1.04417 -4.89219
4.7847 1.17643 -5.70755
4.80429 1.30903 -6.52292
4.82413 1.44199 -7.33828
4.84422 1.57529 -8.15365
4.86454 1.70896 -8.96901
4.88508 1.84299 -9.78438
4.90584 1.97739 -10.5997
4.9268 2.11216 -11.4151
4.94796 2.2473 -12.2305
4.96929 2.38282 -13.0458
4.9908 2.51872 -13.8612
5.01247 2.65501 -14.6766
5.03429 2.79168 -15.4919
4.06465 0.495757 0
4.09439 0.613032 -0.815365
4.12473 0.730933 -1.63073
4.15567 0.849474 -2.44609
4.18717 0.968665 -3.26146
4.21924 1.08852 -4.07682
4.25184 1.20905 -4.89219
4.28496 1.33026 -5.70755
4.31858 1.45217 -6.52292
4.35269 1.57478 -7.33828
4.38726 1.6981 -8.15365
4.42227 1.82215 -8.96901
4.45772 1.94693 -9.78438
4.49357 2.07245 -10.5997
4.52981 2.19871 -11.4151
4.56641 2.32573 -12.2305
4.60337 2.45351 -13.0458
4.64065 2.58205 -13.8612
4.67824 2.71136 -14.6766
4.71612 2.84145 -15.4919
3.31841 0.704179 0
3.36496 0.808871 -0.815365
3.41236 0.914533 -1.63073
3.46058 1.02118 -2.44609
3.50961 1.12884 -3.26146
3.55942 1.23752 -4.07682
3.60998 1.34723 -4.89219
3.66127 1.45799 -5.70755
3.71326 1.56982 -6.52292
3.76593 1.68273 -7.33828
3.81926 1.79673 -8.15365
3.8732 1.91183 -8.96901
3.92775 2.02805 -9.78438
3.98287 2.1454 -10.5997
4.03853 2.26388 -11.4151
4.0947 2.38351 -12.2305
4.15136 2.50429 -13.0458
4.20849 2.62624 -13.8612
4.26604 2.74936 -14.6766
4.32399 2.87365 -15.4919
2.49085 0.815741 0
2.55787 0.91143 -0.815365
2.62586 1.0084 -1.63073
2.69479 1.10668 -2.44609
2.76463 1.20627 -3.26146
2.83536 1.3072 -4.07682
2.90695 1.40949 -4.89219
2.97936 1.51314 -5.70755
3.05258 1.61819 -6.52292
3.12656 1.72463 -7.33828
3.20129 1.83249 -8.15365
3.27672 1.94178 -8.96901
3.35283 2.05252 -9.78438
3.42958 2.1647 -10.5997
3.50695 2.27836 -11.4151
3.58491 2.39349 -12.2305
3.66341 2.51011 -13.0458
3.74243 2.62823 -13.8612
3.82194 2.74785 -14.6766
3.90191 2.86899 -15.4919
1.66699 0.801863 0
1.75631 0.893619 -0.815365
1.84655 0.986903 -1.63073
1.9377 1.08173 -2.44609
2.02972 1.17812 -3.26146
2.12259 1.27608 -4.07682
2.21628 1.37564 -4.89219
2.31077 1.4768 -5.70755
2.40601 1.57959 -6.52292
2.50199 1.68401 -7.33828
2.59867 1.79008 -8.15365
2.69602 1.89781 -8.96901
2.79402 2.00721 -9.78438
2.89263 2.1183 -10.5997
2.99182 2.23108 -11.4151
3.09156 2.34557 -12.2305
3.19182 2.46178 -13.0458
3.29257 2.57971 -13.8612
3.39377 2.69937 -14.6766
3.4954 2.82077 -15.4919
0.934684 0.681349 0
1.04546 0.773718 -0.815365
1.15701 0.867786 -1.63073
1.2693 0.963567 -2.44609
1.38231 1.06107 -3.26146
1.49602 1.16031 -4.07682
1.6104 1.2613 -4.89219
1.72542 1.36405 -5.70755
1.84106 1.46857 -6.52292
1.9573 1.57487 -7.33828
2.0741 1.68297 -8.15365
2.19144 1.79286 -8.96901
2.30931 1.90456 -9.78438
2.42765 2.01809 -10.5997
2.54646 2.13343 -11.4151
2.66571 2.25062 -12.2305
2.78536 2.36964 -13.0458
2.90539 2.49052 -13.8612
3.02577 2.61325 -14.6766
3.14648 2.73784 -15.4919
0.37506 0.51013 0
0.503432 0.605584 -0.815365
0.632368 0.702857 -1.63073
0.761847 0.801957 -2.44609
0.891849 0.902893 -3.26146
1.02235 1.00567 -4.07682
1.15333 1.1103 -4.89219
1.28477 1.21678 -5.70755
1.41665 1.32512 -6.52292
1.54894 1.43534 -7.33828
1.68163 1.54743 -8.15365
1.81469 1.6614 -8.96901
1.94809 1.77725 -9.78438
2.08182 1.895 -10.5997
2.21586 2.01465 -11.4151
2.35018 2.13619 -12.2305
2.48475 2.25964 -13.0458
2.61956 2.38501 -13.8612
2.75458 2.51228 -14.6766
2.8898 2.64148 -15.4919
0.0527109 0.356138 0
0.192029 0.454628 -0.815365
0.331756 0.55503 -1.63073
0.47187 0.657346 -2.44609
0.612354 0.761581 -3.26146
0.753185 0.867739 -4.07682
0.894346 0.975823 -4.89219
1.03582 1.08584 -5.70755
1.17757 1.19778 -6.52292
1.3196 1.31166 -7.33828
1.46188 1.42748 -8.15365
1.60438 1.54524 -8.96901
1.7471 1.66494 -9.78438
1.89 1.78659 -10.5997
2.03307 1.91019 -11.4151
2.17629 2.03574 -12.2305
2.31963 2.16323 -13.0458
2.46308 2.29269 -13.8612
2.60662 2.42409 -14.6766
2.75022 2.55746 -15.4919
0.00707705 0.270262 0
0.148863 0.370014 -0.815365
0.291011 0.47175 -1.63073
0.433498 0.575471 -2.44609
0.576302 0.681181 -3.26146
0.719401 0.788882 -4.07682
0.862774 0.898576 -4.89219
1.0064 1.01027 -5.70755
1.15025 1.12395 -6.52292
1.29431 1.23964 -7.33828
1.43856 1.35732 -8.15365
1.58297 1.47701 -8.96901
1.72752 1.5987 -9.78438
1.87219 1.72239 -10.5997
2.01695 1.84808 -11.4151
2.16179 1.97578 -12.2305
2.30669 2.10548 -13.0458
2.45162 2.23719 -13.8612
2.59655 2.3709 -14.6766
2.74147 2.50661 -15.4919
0.246589 0.266338 0
0.381941 0.365445 -0.815365
0.517721 0.466572 -1.63073
0.653904 0.569724 -2.44609
0.790462 0.674905 -3.26146
0.927368 0.782119 -4.07682
1.06459 0.891369 -4.89219
1.20211 1.00266 -5.70755
1.3399 1.11599 -6.52292
1.47793 1.23137 -7.33828
1.61616 1.34879 -8.15365
1.75459 1.46826 -8.96901
1.89317 1.58978 -9.78438
2.03187 1.71335 -10.5997
2.17069 1.83897 -11.4151
2.30957 1.96664 -12.2305
2.44851 2.09636 -13.0458
2.58747 2.22813 -13.8612
2.72642 2.36195 -14.6766
2.86534 2.49781 -15.4919
0.746753 0.318925 0
0.867833 0.416926 -0.815365
0.989475 0.516913 -1.63073
1.11165 0.618894 -2.44609
1.23431 0.722879 -3.26146
1.35744 0.828872 -4.07682
1.481 0.936882 -4.89219
1.60496 1.04691 -5.70755
1.72928 1.15897 -6.52292
1.85393 1.27306 -7.33828
1.97888 1.38918 -8.15365
2.10409 1.50734 -8.96901
2.22953 1.62754 -9.78438
2.35516 1.74978 -10.5997
2.48096 1.87407 -11.4151
2.60689 2.0004 -12.2305
2.73291 2.12878 -13.0458
2.85899 2.2592 -13.8612
2.9851 2.39166 -14.6766
3.11121 2.52617 -15.4919
1.45261 0.378994 0
1.55383 0.477642 -0.815365
1.65572 0.578135 -1.63073
1.75826 0.680484 -2.44609
1.8614 0.784701 -3.26146
1.96511 0.890794 -4.07682
2.06936 0.998774 -4.89219
2.1741 1.10865 -5.70755
2.2793 1.22042 -6.52292
2.38493 1.33411 -7.33828
2.49093 1.44971 -8.15365
2.59728 1.56723 -8.96901
2.70394 1.68667 -9.78438
2.81087 1.80804 -10.5997
2.91803 1.93134 -11.4151
3.02539 2.05658 -12.2305
3.1329 2.18374 -13.0458
3.24054 2.31284 -13.8612
3.34825 2.44388 -14.6766
3.45601 2.57685 -15.4919
2.2852 0.398993 0
2.36381 0.501842 -0.815365
2.44313 0.606268 -1.63073
2.52312 0.712284 -2.44609
2.60376 0.819902 -3.26146
2.685 0.929133 -4.07682
2.7668 1.03999 -4.89219
2.84914 1.15248 -5.70755
2.93197 1.26661 -6.52292
3.01526 1.38239 -7.33828
3.09897 1.49983 -8.15365
3.18307 1.61893 -8.96901
3.26751 1.7397 -9.78438
3.35225 1.86214 -10.5997
3.43727 1.98626 -11.4151
3.52252 2.11207 -12.2305
3.60796 2.23955 -13.0458
3.69357 2.36872 -13.8612
3.77929 2.49957 -14.6766
3.8651 2.6321 -15.4919
3.15086 0.354799 0
3.207 0.465811 -0.815365
3.26376 0.578023 -1.63073
3.32113 0.691448 -2.44609
3.37906 0.806097 -3.26146
3.43752 0.921981 -4.07682
3.4965 1.03911 -4.89219
3.55594 1.15749 -5.70755
3.61583 1.27713 -6.52292
3.67613 1.39805 -7.33828
3.73682 1.52023 -8.15365
3.79785 1.6437 -8.96901
3.8592 1.76846 -9.78438
3.92083 1.89451 -10.5997
3.98272 2.02185 -11.4151
4.04484 2.1505 -12.2305
4.10714 2.28044 -13.0458
4.1696 2.41168 -13.8612
4.23219 2.54423 -14.6766
4.29487 2.67808 -15.4919
3.95216 0.254823 0
3.98844 0.376657 -0.815365
4.02516 0.499264 -1.63073
4.06231 0.622655 -2.44609
4.09987 0.746837 -3.26146
4.13781 0.871818 -4.07682
4.17611 0.997606 -4.89219
4.21475 1.12421 -5.70755
4.25371 1.25162 -6.52292
4.29297 1.37987 -7.33828
4.33251 1.50894 -8.15365
4.3723 1.63885 -8.96901
4.41232 1.76959 -9.78438
4.45255 1.90118 -10.5997
4.49298 2.03361 -11.4151
4.53356 2.16689 -12.2305
4.57429 2.30101 -13.0458
4.61515 2.43599 -13.8612
4.6561 2.57181 -14.6766
4.69713 2.70849 -15.4919
4.59899 0.133913 0
4.61987 0.266651 -0.815365
4.64098 0.399768 -1.63073
4.66232 0.53327 -2.44609
4.68387 0.66716 -3.26146
4.70562 0.801443 -4.07682
4.72756 0.936122 -4.89219
4.74967 1.0712 -5.70755
4.77196 1.20668 -6.52292
4.7944 1.34257 -7.33828
4.81699 1.47887 -8.15365
4.83972 1.61558 -8.96901
4.86256 1.7527 -9.78438
4.88552 1.89024 -10.5997
4.90858 2.02819 -11.4151
4.93173 2.16656 -12.2305
4.95496 2.30535 -13.0458
4.97825 2.44457 -13.8612
5.0016 2.5842 -14.6766
5.025 2.72425 -15.4919
5.01865 0.0369094 0
5.02983 0.177712 -0.815365
5.04108 0.318615 -1.63073
5.05239 0.459619 -2.44609
5.06375 0.600727 -3.26146
5.07517 0.741939 -4.07682
5.08665 0.883257 -4.89219
5.09817 1.02468 -5.70755
5.10974 1.16621 -6.52292
5.12135 1.30785 -7.33828
5.13301 1.4496 -8.15365
5.1447 1.59145 -8.96901
5.15642 1.73342 -9.78438
5.16818 1.8755 -10.5997
5.17996 2.01769 -11.4151
5.19177 2.15999 -12.2305
5.2036 2.3024 -13.0458
5.21545 2.44492 -13.8612
5.22731 2.58756 -14.6766
5.23919 2.7303 -15.4919
5.16398 -9.69577e-33 0
5.17185 0.143771 -0.815365
5.17973 0.287542 -1.63073
5.18761 0.431313 -2.44609
5.19548 0.575083 -3.26146
5.20336 0.718854 -4.07682
5.21124 0.862625 -4.89219
5.21911 1.0064 -5.70755
5.22699 1.15017 -6.52292
5.23487 1.29394 -7.33828
5.24274 1.43771 -8.15365
5.25062 1.58148 -8.96901
5.2585 1.72525 -9.78438
5.26637 1.86902 -10.5997
5.27425 2.01279 -11.4151
5.28213 2.15656 -12.2305
5.29 2.30033 -13.0458
5.29788 2.4441 -13.8612
5.30576 2.58788 -14.6766
5.31363 2.73165 -15.4919
CELLS 361 1805
4 0 20 21 1
4 1 21 22 2
4 2 22 23 3
4 3 23 24 4
4 4 24 25 5
4 5 25 26 6
4 6 26 27 7
4 7 27 28 8
4 8 28 29 9
4 9 29 30 10
4 10 30 31 11
4 11 31 32 12
4 12 32 33 13
4 13 33 34 14
4 14 34 35 15
4 15 35 36 16
4 16 36 37 17
4 17 37 38 18
4 18 38 39 19
4 20 40 41 21
4 21 41 42 22
4 22 42 43 23
4 23 43 44 24
4 24 44 45 25
4 25 45 46 26
4 26 46 47 27
4 27 47 48 28
4 28 48 49 29
4 29 49 50 30
4 30 50 51 31
4 31 51 52 32
4 32 52 53 33
4 33 53 54 34
4 34 54 55 35
4 35 55 56 36
4 36 56 57 37
4 37 57 58 38
4 38 58 59 39
4 40 60 61 41
4 41 61 62 42
4 42 62 63 43
4 43 63 64 44
4 44 64 65 45
4 45 65 66 46
4 46 66 67 47
4 47 67 68 48
4 48 68 69 49
4 49 69 70 50
4 50 70 71 51
4 51 71 72 52
4 52 72 73 53
4 53 73 74 54
4 54 74 75 55
4 55 75 76 56
4 56 76 77 57
4 57 77 78 58
4 58 78 79 59
4 60 80 81 61
4 61 81 82 62
4 62 82 83 63
4 63 83 84 64
4 64 84 85 65
4 65 85 86 66
4 66 86 87 67
4 67 87 88 68
4 68 88 89 69
4 69 89 90 70
4 70 90 91 71
4 71 91 92 72
4 72 92 93 73
4 73 93 94 74
4 74 94 95 75
4 75 95 96 76
4 76 96 97 77
4 77 97 98 78
4 78 98 99 79
4 80 100 101 81
4 81 101 102 82
4 82 102 103 83
4 83 103 104 84
4 84 104 105 85
4 85 105 106 86
4 86 106 107 87
4 87 107 108 88
4 88 108 109 89
4 89 109 110 90
4 90 110 111 91
4 91 111 112 92
4 92 112 113 93
4 93 113 114 94
4 94 114 115 95
4 95 115 116 96
4 96 116 117 97
4 97 117 118 98
4 98 118 119 99
4 100 120 121 101
4 101 121 122 102
4 102 122 123 103
4 103 123 124 104
4 104 124 125 105
4 105 125 126 106
4 106 126 127 107
4 107 127 128 108
4 108 128 129 109
4 109 129 130 110
4 110 130 131 111
4 111 131 132 112
4 112 132 133 113
4 113 133 134 114
4 114 134 135 115
4 115 135 136 116
4 116 136 137 117
4 117 137 138 118
4 118 138 139 119
4 120 140 141 121
4 121 141 142 122
4 122 142 143 123
4 123 143 144 124
4 124 144 145 125
4 125 145 146 126
4 126 146 147 127
4 127 147 148 128
4 128 148 149 129
4 129 149 150 130
4 130 150 151 131
4 131 151 152 132
4 132 152 153 133
4 133 153 154 134
4 134 154 155 135
4 135 155 156 136
4 136 156 157 137
4 137 157 158 138
4 138 158 159 139
4 140 160 161 141
4 141 161 162 142
4 142 162 163 143
4 143 163 164 144
4 144 164 165 145
4 145 165 166 146
4 146 166 167 147
4 147 167 168 148
4 148 168 169 149
4 149 169 170 150
4 150 170 171 151
4 151 171 172 152
4 152 172 173 153
4 153 173 174 154
4 154 174 175 155
4 155 175 176 156
4 156 176 177 157
4 157 177 178 158
4 158 178 179 159
4 160 180 181 161
4 161 181 182 162
4 162 182 183 163
4 163 183 184 164
4 164 184 185 165
4 165 185 186 166
4 166 186 187 167
4 167 187 188 168
4 168 188 189 169
4 169 189 190 170
4 170 190 191 171
4 171 191 192 172
4 172 192 193 173
4 173 193 194 174
4 174 194 195 175
4 175 195 196 176
4 176 196 197 177
4 177 197 198 178
4 178 198 199 179
4 180 200 201 181
4 181 201 202 182
4 182 202 203 183
4 183 203 204 184
4 184 204 205 185
4 185 205 206 186
4 186 206 207 187
4 187 207 208 188
4 188 208 209 189
4 189 209 210 190
4 190 210 211 191
4 191 211 212 192
4 192 212 213 193
4 193 213 214 194
4 194 214 215 195
4 195 215 216 196
4 196 216 217 197
4 197 217 218 198
4 198 218 219 199
4 200 220 221 201
4 201 221 222 202
4 202 222 223 203
4 203 223 224 204
4 204 224 225 205
4 205 225 226 206
4 206 226 227 207
4 207 227 228 208
4 208 228 229 209
4 209 229 230 210
4 210 230 231 211
4 211 231 232 212
4 212 232 233 213
4 213 233 234 214
4 214 234 235 215
4 215 235 236 216
4 216 236 237 217
4 217 237 238 218
4 218 238 239 219
4 220 240 241 221
4 221 241 242 222
4 222 242 243 223
4 223 243 244 224
4 224 244 245 225
4 225 245 246 226
4 226 246 247 227
4 227 247 248 228
4 228 248 249 229
4 229 249 250 230
4 230 250 251 231
4 231 251 252 232
4 232 252 253 233
4 233 253 254 234
4 234 254 255 235
4 235 255 256 236
4 236 256 257 237
4 237 257 258 238
4 238 258 259 239
4 240 260 261 241
4 241 261 262 242
4 242 262 263 243
4 243 263 264 244
4 244 264 265 245
4 245 265 266 246
4 246 266 267 247
4 247 267 268 248
4 248 268 269 249
4 249 269 270 250
4 250 270 271 251
4 251 271 272 252
4 252 272 273 253
4 253 273 274 254
4 254 274 275 255
4 255 275 276 256
4 256 276 277 257
4 257 277 278 258
4 258 278 279 259
4 260 280 281 261
4 261 281 282 262
4 262 282 283 263
4 263 283 284 264
4 264 284 285 265
4 265 285 286 266
4 266 286 287 267
4 267 287 288 268
4 268 288 289 269
4 269 289 290 270
4 270 290 291 271
4 271 291 292 272
4 272 292 293 273
4 273 293 294 274
4 274 294 295 275
4 275 295 296 276
4 276 296 297 277
4 277 297 298 278
4 278 298 299 279
4 280 300 301 281
4 281 301 302 282
4 282 302 303 283
4 283 303 304 284
4 284 304 305 285
4 285 305 306 286
4 286 306 307 287
4 287 307 308 288
4 288 308 309 289
4 289 309 310 290
4 290 310 311 291
4 291 311 312 292
4 292 312 313 293
4 293 313 314 294
4 294 314 315 295
4 295 315 316 296
4 296 316 317 297
4 297 317 318 298
4 298 318 319 299
4 300 320 321 301
4 301 321 322 302
4 302 322 323 303
4 303 323 324 304
4 304 324 325 305
4 305 325 326 306
4 306 326 327 307
4 307 327 328 308
4 308 328 329 309
4 309 329 330 310
4 310 330 331 311
4 311 331 332 312
4 312 332 333 313
4 313 333 334 314
4 314 334 335 315
4 315 335 336 316
4 316 336 337 317
4 317 337 338 318
4 318 338 339 319
4 320 340 341 321
4 321 341 342 322
4 322 342 343 323
4 323 343 344 324
4 324 344 345 325
4 325 345 346 326
4 326 346 347 327
4 327 347 348 328
4 328 348 349 329
4 329 349 350 330
4 330 350 351 331
4 331 351 352 332
4 332 352 353 333
4 333 353 354 334
4 334 354 355 335
4 335 355 356 336
4 336 356 357 337
4 337 357 358 338
4 338 358 359 339
4 340 360 361 341
4 341 361 362 342
4 342 362 363 343
4 343 363 364 344
4 344 364 365 345
4 345 365 366 346
4 346 366 367 347
4 347 367 368 348
4 348 368 369 349
4 349 369 370 350
4 350 370 371 351
4 351 371 372 352
4 352 372 373 353
4 353 373 374 354
4 354 374 375 355
4 355 375 376 356
4 356 376 377 357
4 357 377 378 358
4 358 378 379 359
4 360 380 381 361
4 361 381 382 362
4 362 382 383 363
4 363 383 384 364
4 364 384 385 365
4 365 385 386 366
4 366 386 387 367
4 367 387 388 368
4 368 388 389 369
4 369 389 390 370
4 370 390 391 371
4 371 391 392 372
4 372 392 393 373
4 373 393 394 374
4 374 394 395 375
4 375 395 396 376
4 376 396 397 377
4 377 397 398 378
4 378 398 399 379
CELL_TYPES 361
9
9
9
9
9
9
9
9
9
9
9
9
9
9
9
9
9
9
9
9
9
9
9
9
9
9
9
9
9
9
9
9
9
9
9
9
9
9
9
9
9
9
9
9
9
9
9
9
9
9
9
9
9
9
9
9
9
9
9
9
9
9
9
9
9
9
9
9
9
9
9
9
9
9
9
9
9
9
9
9
9
9
9
9
9
9
9
9
9
9
9
9
9
9
9
9
9
9
9
9
9
9
9
9
9
9
9
9
9
9
9
9
9
9
9
9
9
9
9
9
9
9
9
9
9
9
9
9
9
9
9
9
9
9
9
9
9
9
9
9
9
9
9
9
9
9
9
9
9
9
9
9
9
9
9
9
9
9
9
9
9
9
9
9
9
9
9
9
9
9
9
9
9
9
9
9
9
9
9
9
9
9
9
9
9
9
9
9
9
9
9
9
9
9
9
9
9
9
9
9
9
9
9
9
9
9
9
9
9
9
9
9
9
9
9
9
9
9
9
9
9
9
9
9
9
9
9
9
9
9
9
9
9
9
9
9
9
9
9
9
9
9
9
9
9
9
9
9
9
9
9
9
9
9
9
9
9
9
9
9
9
9
9
9
9
9
9
9
9
9
9
9
9
9
9
9
9
9
9
9
9
9
9
9
9
9
9
9
9
9
9
9
9
9
9
9
9
9
9
9
9
9
9
9
9
9
9
9
9
9
9
9
9
9
9
9
9
9
9
9
9
9
9
9
9
9
9
9
9
9
9
9
9
9
9
9
9
9
9
9
9
9
9
9
9
9
9
9
9
9
9
9
9
9
9
9
9
9
9
9
9
POINT_DATA 400
VECTORS AREA_SENS double64
0.0215166 0 -0
0.0215494 0.000599045 -0.00339735
0.0215822 0.00119809 -0.00679471
0.021615 0.00179714 -0.0101921
0.0216479 0.00239618 -0.0135894
0.0216807 0.00299523 -0.0169868
0.0217135 0.00359427 -0.0203841
0.0217463 0.00419332 -0.0237815
0.0217791 0.00479236 -0.0271788
0.0218119 0.00539141 -0.0305762
0.0218448 0.00599045 -0.0339735
0.0218776 0.0065895 -0.0373709
0.0219104 0.00718854 -0.0407682
0.0219432 0.00778759 -0.0441656
0.021976 0.00838663 -0.047563
0.0220089 0.00898568 -0.0509603
0.0220417 0.00958472 -0.0543577
0.0220745 0.0101838 -0.057755
0.0221073 0.0107828 -0.0611524
0.0221401 0.0113819 -0.0645497
0.0209742 0.000294044 -0
0.021017 0.000877914 -0.00339735
0.0210602 0.00146213 -0.00679471
0.0211038 0.00204669 -0.0101921
0.0211477 0.0026316 -0.0135894
0.021192 0.00321688 -0.0169868
0.0212365 0.00380253 -0.0203841
0.0212814 0.00438856 -0.0237815
0.0213266 0.00497497 -0.0271788
0.021372 0.00556176 -0.0305762
0.0214178 0.00614896 -0.0339735
0.0214638 0.00673655 -0.0373709
0.0215101 0.00732454 -0.0407682
0.0215566 0.00791295 -0.0441656
0.0216034 0.00850177 -0.047563
0.0216503 0.00909101 -0.0509603
0.0216975 0.00968067 -0.0543577
0.0217449 0.0102708 -0.057755
0.0217924 0.0108613 -0.0611524
0.0218402 0.0114522 -0.0645497
0.0193977 0.00107298 -0
0.0194708 0.00161596 -0.00339735
0.0195453 0.00216024 -0.00679471
0.0196211 0.00270582 -0.0101921
0.0196981 0.00325275 -0.0135894
0.0197763 0.00380103 -0.0169868
0.0198557 0.0043507 -0.0203841
0.0199362 0.00490179 -0.0237815
0.0200179 0.00545431 -0.0271788
0.0201005 0.00600828 -0.0305762
0.0201842 0.00656373 -0.0339735
0.0202689 0.00712067 -0.0373709
0.0203545 0.00767913 -0.0407682
0.020441 0.00823911 -0.0441656
0.0205283 0.00880065 -0.047563
0.0206165 0.00936374 -0.0509603
0.0207054 0.00992841 -0.0543577
0.020795 0.0104947 -0.057755
0.0208853 0.0110625 -0.0611524
0.0209762 0.011632 -0.0645497
0.016936 0.00206566 -0
0.0170599 0.0025543 -0.00339735
0.0171864 0.00304555 -0.00679471
0.0173153 0.00353947 -0.0101921
0.0174466 0.00403611 -0.0135894
0.0175801 0.0045355 -0.0169868
0.017716 0.0050377 -0.0203841
0.017854 0.00554275 -0.0237815
0.0179941 0.0060507 -0.0271788
0.0181362 0.00656158 -0.0305762
0.0182802 0.00707544 -0.0339735
0.0184261 0.0075923 -0.0373709
0.0185738 0.00811222 -0.0407682
0.0187232 0.00863521 -0.0441656
0.0188742 0.00916131 -0.047563
0.0190267 0.00969054 -0.0509603
0.0191807 0.0102229 -0.0543577
0.0193361 0.0107585 -0.057755
0.0194927 0.0112973 -0.0611524
0.0196505 0.0118394 -0.0645497
0.0138267 0.00293408 -0
0.0140207 0.00337029 -0.00339735
0.0142182 0.00381056 -0.00679471
0.0144191 0.00425494 -0.0101921
0.0146234 0.0047035 -0.0135894
0.0148309 0.00515632 -0.0169868
0.0150416 0.00561346 -0.0203841
0.0152553 0.00607498 -0.0237815
0.0154719 0.00654093 -0.0271788
0.0156914 0.00701138 -0.0305762
0.0159136 0.00748638 -0.0339735
0.0161384 0.00796598 -0.0373709
0.0163656 0.00845022 -0.0407682
0.0165953 0.00893916 -0.0441656
0.0168272 0.00943283 -0.047563
0.0170613 0.00993128 -0.0509603
0.0172974 0.0104345 -0.0543577
0.0175354 0.0109427 -0.057755
0.0177752 0.0114556 -0.0611524
0.0180166 0.0119735 -0.0645497
0.0103785 0.00339892 -0
0.0106578 0.00379763 -0.00339735
0.0109411 0.00420168 -0.00679471
0.0112283 0.00461115 -0.0101921
0.0115193 0.00502612 -0.0135894
0.011814 0.00544667 -0.0169868
0.0121123 0.00587286 -0.0203841
0.012414 0.00630476 -0.0237815
0.0127191 0.00674244 -0.0271788
0.0130273 0.00718596 -0.0305762
0.0133387 0.00763538 -0.0339735
0.013653 0.00809076 -0.0373709
0.0139701 0.00855215 -0.0407682
0.0142899 0.0090196 -0.0441656
0.0146123 0.00949316 -0.047563
0.0149371 0.00997288 -0.0509603
0.0152642 0.0104588 -0.0543577
0.0155935 0.010951 -0.057755
0.0159248 0.0114494 -0.0611524
0.0162579 0.0119541 -0.0645497
0.00694579 0.00334109 -0
0.00731794 0.00372341 -0.00339735
0.00769396 0.00411209 -0.00679471
0.00807375 0.00450721 -0.0101921
0.00845717 0.00490882 -0.0135894
0.00884414 0.00531701 -0.0169868
0.00923451 0.00573183 -0.0203841
0.00962819 0.00615334 -0.0237815
0.010025 0.00658161 -0.0271788
0.0104249 0.0070167 -0.0305762
0.0108278 0.00745865 -0.0339735
0.0112334 0.00790753 -0.0373709
0.0116417 0.00836337 -0.0407682
0.0120526 0.00882624 -0.0441656
0.0124659 0.00929618 -0.047563
0.0128815 0.00977322 -0.0509603
0.0132993 0.0102574 -0.0543577
0.013719 0.0107488 -0.057755
0.0141407 0.0112474 -0.0611524
0.0145642 0.0117532 -0.0645497
0.00389451 0.00283895 -0
0.0043561 0.00322382 -0.00339735
0.00482088 0.00361578 -0.00679471
0.00528876 0.00401486 -0.0101921
0.00575964 0.00442113 -0.0135894
0.00623342 0.00483464 -0.0169868
0.00670998 0.00525543 -0.0203841
0.00718924 0.00568355 -0.0237815
0.00767108 0.00611906 -0.0271788
0.0081554 0.00656198 -0.0305762
0.00864208 0.00701236 -0.0339735
0.00913102 0.00747025 -0.0373709
0.00962211 0.00793568 -0.0407682
0.0101152 0.00840869 -0.0441656
0.0106103 0.00888931 -0.047563
0.0111071 0.00937758 -0.0509603
0.0116057 0.00987352 -0.0543577
0.0121058 0.0103772 -0.057755
0.0126074 0.0108885 -0.0611524
0.0131103 0.0114077 -0.0645497
0.00156275 0.00212554 -0
0.00209763 0.00252327 -0.00339735
0.00263487 0.00292857 -0.00679471
0.00317436 0.00334149 -0.0101921
0.00371604 0.00376205 -0.0135894
0.0042598 0.00419029 -0.0169868
0.00480556 0.00462624 -0.0203841
0.00535322 0.00506991 -0.0237815
0.00590271 0.00552135 -0.0271788
0.00645393 0.00598058 -0.0305762
0.00700679 0.00644761 -0.0339735
0.00756119 0.00692249 -0.0373709
0.00811705 0.00740522 -0.0407682
0.00867426 0.00789584 -0.0441656
0.00923274 0.00839436 -0.047563
0.0097924 0.0089008 -0.0509603
0.0103531 0.00941518 -0.0543577
0.0109148 0.00993753 -0.057755
0.0114774 0.0104678 -0.0611524
0.0120408 0.0110062 -0.0645497
0.000219629 0.00148391 -0
0.000800122 0.00189428 -0.00339735
0.00138232 0.00231262 -0.00679471
0.00196613 0.00273894 -0.0101921
0.00255147 0.00317326 -0.0135894
0.00313827 0.00361558 -0.0169868
0.00372644 0.00406593 -0.0203841
0.0043159 0.00452432 -0.0237815
0.00490656 0.00499075 -0.0271788
0.00549834 0.00546526 -0.0305762
0.00609116 0.00594784 -0.0339735
0.00668493 0.0064385 -0.0373709
0.00727958 0.00693727 -0.0407682
0.007875 0.00744414 -0.0441656
0.00847113 0.00795912 -0.047563
0.00906786 0.00848223 -0.0509603
0.00966513 0.00901348 -0.0543577
0.0102628 0.00955286 -0.057755
0.0108609 0.0101004 -0.0611524
0.0114593 0.0106561 -0.0645497
2.94877e-05 0.00112609 -0
0.000620264 0.00154173 -0.00339735
0.00121255 0.00196562 -0.00679471
0.00180624 0.0023978 -0.0101921
0.00240126 0.00283825 -0.0135894
0.0029975 0.00328701 -0.0169868
0.00359489 0.00374407 -0.0203841
0.00419332 0.00420944 -0.0237815
0.00479271 0.00468313 -0.0271788
0.00539297 0.00516516 -0.0305762
0.00599399 0.00565551 -0.0339735
0.00659569 0.00615421 -0.0373709
0.00719799 0.00666124 -0.0407682
0.00780078 0.00717662 -0.0441656
0.00840397 0.00770035 -0.047563
0.00900748 0.00823243 -0.0509603
0.00961121 0.00877285 -0.0543577
0.0102151 0.00932163 -0.057755
0.010819 0.00987875 -0.0611524
0.0114228 0.0104442 -0.0645497
0.00102745 0.00110974 -0
0.00159142 0.00152269 -0.00339735
0.00215717 0.00194405 -0.00679471
0.0027246 0.00237385 -0.0101921
0.00329359 0.0028121 -0.0135894
0.00386403 0.00325883 -0.0169868
0.00443581 0.00371404 -0.0203841
0.00500881 0.00417774 -0.0237815
0.00558292 0.00464996 -0.0271788
0.00615803 0.00513069 -0.0305762
0.00673402 0.00561996 -0.0339735
0.00731077 0.00611775 -0.0373709
0.00788819 0.00662408 -0.0407682
0.00846614 0.00713896 -0.0441656
0.00904453 0.00766237 -0.047563
0.00962323 0.00819433 -0.0509603
0.0102021 0.00873483 -0.0543577
0.0107811 0.00928387 -0.057755
0.0113601 0.00984144 -0.0611524
0.0119389 0.0104075 -0.0645497
0.00311147 0.00132886 -0
0.00361597 0.00173719 -0.00339735
0.00412281 0.0021538 -0.00679471
0.00463186 0.00257873 -0.0101921
0.00514297 0.00301199 -0.0135894
0.00565601 0.00345363 -0.0169868
0.00617084 0.00390367 -0.0203841
0.00668733 0.00436213 -0.0237815
0.00720533 0.00482904 -0.0271788
0.00772471 0.0053044 -0.0305762
0.00824532 0.00578824 -0.0339735
0.00876703 0.00628058 -0.0373709
0.0092897 0.00678141 -0.0407682
0.00981318 0.00729076 -0.0441656
0.0103373 0.00780862 -0.047563
0.010862 0.008335 -0.0509603
0.0113871 0.00886991 -0.0543577
0.0119125 0.00941332 -0.057755
0.0124379 0.00996526 -0.0611524
0.0129634 0.0105257 -0.0645497
0.00605256 0.00157914 -0
0.00647429 0.00199017 -0.00339735
0.00689884 0.00240889 -0.00679471
0.00732608 0.00283535 -0.0101921
0.00775584 0.00326959 -0.0135894
0.00818798 0.00371164 -0.0169868
0.00862234 0.00416156 -0.0203841
0.00905876 0.00461937 -0.0237815
0.0094971 0.0050851 -0.0271788
0.00993719 0.00555878 -0.0305762
0.0103789 0.00604045 -0.0339735
0.010822 0.00653011 -0.0373709
0.0112664 0.00702779 -0.0407682
0.011712 0.0075335 -0.0441656
0.0121585 0.00804726 -0.047563
0.0126058 0.00856906 -0.0509603
0.0130538 0.00909893 -0.0543577
0.0135022 0.00963685 -0.057755
0.013951 0.0101828 -0.0611524
0.0144 0.0107369 -0.0645497
0.00952166 0.00166247 -0
0.0098492 0.00209101 -0.00339735
0.0101797 0.00252612 -0.00679471
0.010513 0.00296785 -0.0101921
0.010849 0.00341626 -0.0135894
0.0111875 0.00387139 -0.0169868
0.0115283 0.00433328 -0.0203841
0.0118714 0.00480198 -0.0237815
0.0122166 0.00527753 -0.0271788
0.0125636 0.00575995 -0.0305762
0.0129124 0.00624927 -0.0339735
0.0132628 0.00674553 -0.0373709
0.0136146 0.00724874 -0.0407682
0.0139677 0.00775893 -0.0441656
0.014322 0.0082761 -0.047563
0.0146772 0.00880027 -0.0509603
0.0150332 0.00933145 -0.0543577
0.0153899 0.00986965 -0.057755
0.015747 0.0104149 -0.0611524
0.0161046 0.0109671 -0.0645497
0.0131286 0.00147833 -0
0.0133625 0.00194088 -0.00339735
0.013599 0.00240843 -0.00679471
0.013838 0.00288103 -0.0101921
0.0140794 0.00335874 -0.0135894
0.014323 0.00384159 -0.0169868
0.0145687 0.00432962 -0.0203841
0.0148164 0.00482288 -0.0237815
0.015066 0.00532139 -0.0271788
0.0153172 0.00582519 -0.0305762
0.0155701 0.00633431 -0.0339735
0.0158244 0.00684877 -0.0373709
0.01608 0.00736859 -0.0407682
0.0163368 0.00789379 -0.0441656
0.0165947 0.00842439 -0.047563
0.0168535 0.0089604 -0.0509603
0.0171131 0.00950182 -0.0543577
0.0173733 0.0100487 -0.057755
0.0176341 0.010601 -0.0611524
0.0178953 0.0111587 -0.0645497
0.0164673 0.00106176 -0
0.0166185 0.0015694 -0.00339735
0.0167715 0.00208027 -0.00679471
0.0169263 0.0025944 -0.0101921
0.0170828 0.00311182 -0.0135894
0.0172409 0.00363258 -0.0169868
0.0174004 0.00415669 -0.0203841
0.0175615 0.00468419 -0.0237815
0.0177238 0.0052151 -0.0271788
0.0178874 0.00574945 -0.0305762
0.0180521 0.00628726 -0.0339735
0.0182179 0.00682853 -0.0373709
0.0183847 0.00737331 -0.0407682
0.0185523 0.00792158 -0.0441656
0.0187207 0.00847338 -0.047563
0.0188898 0.0090287 -0.0509603
0.0190596 0.00958755 -0.0543577
0.0192298 0.0101499 -0.057755
0.0194004 0.0107159 -0.0611524
0.0195714 0.0112854 -0.0645497
0.0191625 0.000557969 -0
0.0192495 0.00111104 -0.00339735
0.0193374 0.0016657 -0.00679471
0.0194263 0.00222196 -0.0101921
0.0195161 0.00277984 -0.0135894
0.0196067 0.00333935 -0.0169868
0.0196981 0.00390051 -0.0203841
0.0197903 0.00446334 -0.0237815
0.0198832 0.00502785 -0.0271788
0.0199767 0.00559405 -0.0305762
0.0200708 0.00616196 -0.0339735
0.0201655 0.00673158 -0.0373709
0.0202607 0.00730292 -0.0407682
0.0203563 0.00787599 -0.0441656
0.0204524 0.0084508 -0.047563
0.0205489 0.00902735 -0.0509603
0.0206457 0.00960565 -0.0543577
0.0207427 0.0101857 -0.057755
0.02084 0.0107675 -0.0611524
0.0209375 0.011351 -0.0645497
0.020911 0.000153789 -0
0.0209576 0.000740466 -0.00339735
0.0210045 0.00132756 -0.00679471
0.0210516 0.00191508 -0.0101921
0.021099 0.00250303 -0.0135894
0.0211466 0.00309141 -0.0169868
0.0211944 0.00368024 -0.0203841
0.0212424 0.0042695 -0.0237815
0.0212906 0.00485921 -0.0271788
0.021339 0.00544937 -0.0305762
0.0213875 0.00603999 -0.0339735
0.0214362 0.00663106 -0.0373709
0.0214851 0.00722259 -0.0407682
0.0215341 0.00781458 -0.0441656
0.0215832 0.00840703 -0.047563
0.0216324 0.00899995 -0.0509603
0.0216817 0.00959333 -0.0543577
0.021731 0.0101872 -0.057755
0.0217805 0.0107815 -0.0611524
0.02183 0.0113763 -0.0645497
0.0215166 -4.0399e-35 -0
0.0215494 0.000599045 -0.00339735
0.0215822 0.00119809 -0.00679471
0.021615 0.00179714 -0.0101921
0.0216479 0.00239618 -0.0135894
0.0216807 0.00299523 -0.0169868
0.0217135 0.00359427 -0.0203841
0.0217463 0.00419332 -0.0237815
0.0217791 0.00479236 -0.0271788
0.0218119 0.00539141 -0.0305762
0.0218448 0.00599045 -0.0339735
0.0218776 0.0065895 -0.0373709
0.0219104 0.00718854 -0.0407682
0.0219432 0.00778759 -0.0441656
0.021976 0.00838663 -0.047563
0.0220089 0.00898568 -0.0509603
0.0220417 0.00958472 -0.0543577
0.0220745 0.0101838 -0.057755
0.0221073 0.0107828 -0.0611524
0.0221401 0.0113819 -0.0645497
VECTORS ASPECT_SENS double64
-0.322749 0 -0
-0.30527 0.00898568 -0.0509603
-0.28779 0.0179714 -0.101921
-0.270311 0.026957 -0.152881
-0.252832 0.0359427 -0.203841
-0.235353 0.0449284 -0.254802
-0.217874 0.0539141 -0.305762
-0.200395 0.0628997 -0.356722
-0.182916 0.0718854 -0.407682
-0.165437 0.0808711 -0.458643
-0.147958 0.0898568 -0.509603
-0.130479 0.0988424 -0.560563
-0.113 0.107828 -0.611524
-0.0955208 0.116814 -0.662484