# vtk DataFile Version 2.0
Airfoil Example
ASCII
DATASET STRUCTURED_GRID
DIMENSIONS 201 10 1
POINTS 2010 double64
1 -9.15287e-34 0
1 -8.13588e-34 0
1 -7.1189e-34 0
1 -6.10191e-34 0
1 -5.08493e-34 0
1 -4.06794e-34 0
1 -3.05096e-34 0
1 -2.03397e-34 0
1 -1.01699e-34 0
1 0 0
0.999758 8.92592e-05 0
0.999759 9.2473e-05 0
0.999761 9.56869e-05 0
0.999762 9.89007e-05 0
0.999763 0.000102115 0
0.999765 0.000105328 0
0.999766 0.000108542 0
0.999767 0.000111756 0
0.999769 0.00011497 0
0.99977 0.000118184 0
0.999032 0.000356819 0
0.999037 0.000369665 0
0.999043 0.000382511 0
0.999048 0.000395357 0
0.999054 0.000408204 0
0.999059 0.00042105 0
0.999065 0.000433896 0
0.99907 0.000446742 0
0.999075 0.000459588 0
0.999081 0.000472435 0
0.997822 0.000802026 0
0.997835 0.000830895 0
0.997847 0.000859765 0
0.997859 0.000888635 0
0.997871 0.000917505 0
0.997884 0.000946375 0
0.997896 0.000975244 0
0.997908 0.00100411 0
0.997921 0.00103298 0
0.997933 0.00106185 0
0.996131 0.00142379 0
0.996153 0.00147503 0
0.996174 0.00152627 0
0.996196 0.00157751 0
0.996218 0.00162875 0
0.99624 0.00167999 0
0.996262 0.00173123 0
0.996283 0.00178247 0
0.996305 0.00183371 0
0.996327 0.00188495 0
0.993959 0.0022206 0
0.993993 0.00230049 0
0.994027 0.00238039 0
0.994061 0.00246028 0
0.994095 0.00254017 0
0.994129 0.00262006 0
0.994163 0.00269995 0
0.994197 0.00277984 0
0.994231 0.00285973 0
0.994265 0.00293962 0
0.991308 0.00319052 0
0.991357 0.00330526 0
0.991406 0.00342 0
0.991455 0.00353475 0
0.991504 0.00364949 0
0.991553 0.00376424 0
0.991602 0.00387898 0
0.99165 0.00399373 0
0.991699 0.00410847 0
0.991748 0.00422322 0
0.988182 0.00433117 0
0.988249 0.00448687 0
0.988315 0.00464257 0
0.988381 0.00479827 0
0.988448 0.00495397 0
0.988514 0.00510967 0
0.98858 0.00526537 0
0.988647 0.00542107 0
0.988713 0.00557677 0
0.988779 0.00573248 0
0.984584 0.00563978 0
0.98467 0.00584243 0
0.984756 0.00604507 0
0.984843 0.00624772 0
0.984929 0.00645036 0
0.985015 0.00665301 0
0.985102 0.00685565 0
0.985188 0.00705829 0
0.985274 0.00726094 0
0.985361 0.00746358 0
0.980516 0.00711319 0
0.980625 0.00736863 0
0.980733 0.00762407 0
0.980842 0.00787951 0
0.980951 0.00813496 0
0.98106 0.0083904 0
0.981169 0.00864584 0
0.981278 0.00890128 0
0.981387 0.00915673 0
0.981496 0.00941217 0
0.975982 0.0087478 0
0.976116 0.00906175 0
0.97625 0.00937569 0
0.976384 0.00968964 0
0.976518 0.0100036 0
0.976652 0.0103175 0
0.976786 0.0106315 0
0.97692 0.0109454 0
0.977054 0.0112594 0
0.977188 0.0115733 0
0.970989 0.0105397 0
0.97115 0.0109177 0
0.971311 0.0112957 0
0.971473 0.0116736 0
0.971634 0.0120516 0
0.971795 0.0124296 0
0.971957 0.0128076 0
0.972118 0.0131856 0
0.972279 0.0135636 0
0.97244 0.0139416 0
0.965539 0.0124845 0
0.96573 0.0129319 0
0.965921 0.0133793 0
0.966112 0.0138267 0
0.966303 0.0142741 0
0.966494 0.0147215 0
0.966685 0.0151689 0
0.966876 0.0156162 0
0.967067 0.0160636 0
0.967258 0.016511 0
0.959639 0.0145775 0
0.959862 0.0150995 0
0.960085 0.0156215 0
0.960308 0.0161434 0
0.960531 0.0166654 0
0.960754 0.0171874 0
0.960977 0.0177093 0
0.9612 0.0182313 0
0.961423 0.0187533 0
0.961646 0.0192752 0
0.953294 0.0168138 0
0.953551 0.0174153 0
0.953808 0.0180168 0
0.954065 0.0186183 0
0.954323 0.0192197 0
0.95458 0.0198212 0
0.954837 0.0204227 0
0.955094 0.0210242 0
0.955352 0.0216257 0
0.955609 0.0222272 0
0.94651 0.0191879 0
0.946803 0.0198736 0
0.947097 0.0205594 0
0.947391 0.0212451 0
0.947684 0.0219309 0
0.947978 0.0226166 0
0.948271 0.0233024 0
0.948565 0.0239882 0
0.948858 0.0246739 0
0.949152 0.0253597 0
0.939294 0.0216942 0
0.939626 0.0224687 0
0.939958 0.0232432 0
0.94029 0.0240177 0
0.940622 0.0247922 0
0.940953 0.0255667 0
0.941285 0.0263412 0
0.941617 0.0271157 0
0.941949 0.0278903 0
0.942281 0.0286648 0
0.931654 0.0243267 0
0.932026 0.0251942 0
0.932398 0.0260617 0
0.93277 0.0269292 0
0.933142 0.0277967 0
0.933514 0.0286643 0
0.933886 0.0295318 0
0.934258 0.0303993 0
0.93463 0.0312668 0
0.935002 0.0321343 0
0.923596 0.0270791 0
0.92401 0.0280436 0
0.924424 0.0290082 0
0.924838 0.0299727 0
0.925252 0.0309372 0
0.925666 0.0319017 0
0.92608 0.0328662 0
0.926494 0.0338308 0
0.926908 0.0347953 0
0.927322 0.0357598 0
0.915129 0.029945 0
0.915587 0.0310103 0
0.916045 0.0320755 0
0.916502 0.0331408 0
0.91696 0.034206 0
0.917418 0.0352712 0
0.917875 0.0363365 0
0.918333 0.0374017 0
0.918791 0.0384669 0
0.919248 0.0395322 0
0.906261 0.0329177 0
0.906764 0.0340871 0
0.907267 0.0352565 0
0.90777 0.0364259 0
0.908273 0.0375953 0
0.908776 0.0387647 0
0.909279 0.0399341 0
0.909781 0.0411035 0
0.910284 0.0422729 0
0.910787 0.0434423 0
0.897 0.0359901 0
0.89755 0.0372668 0
0.898099 0.0385435 0
0.898649 0.0398202 0
0.899199 0.0410969 0
0.899748 0.0423737 0
0.900298 0.0436504 0
0.900848 0.0449271 0
0.901398 0.0462038 0
0.901947 0.0474805 0
0.887355 0.0391551 0
0.887953 0.040542 0
0.888551 0.0419289 0
0.889149 0.0433157 0
0.889747 0.0447026 0
0.890345 0.0460895 0
0.890943 0.0474764 0
0.89154 0.0488633 0
0.892138 0.0502502 0
0.892736 0.051637 0
0.877337 0.0424054 0
0.877984 0.043905 0
0.878632 0.0454046 0
0.879279 0.0469042 0
0.879926 0.0484038 0
0.880573 0.0499034 0
0.88122 0.051403 0
0.881868 0.0529026 0
0.882515 0.0544022 0
0.883162 0.0559018 0
0.866955 0.0457335 0
0.867652 0.0473481 0
0.86835 0.0489626 0
0.869048 0.0505772 0
0.869745 0.0521917 0
0.870443 0.0538063 0
0.871141 0.0554209 0
0.871838 0.0570354 0
0.872536 0.05865 0
0.873234 0.0602646 0
0.856218 0.0491318 0
0.856967 0.0508632 0
0.857716 0.0525947 0
0.858466 0.0543261 0
0.859215 0.0560576 0
0.859964 0.057789 0
0.860713 0.0595205 0
0.861462 0.0612519 0
0.862211 0.0629834 0
0.86296 0.0647148 0
0.845138 0.0525925 0
0.84594 0.0544425 0
0.846741 0.0562924 0
0.847543 0.0581424 0
0.848344 0.0599923 0
0.849145 0.0618422 0
0.849947 0.0636922 0
0.850748 0.0655421 0
0.85155 0.0673921 0
0.852351 0.069242 0
0.833726 0.056108 0
0.83458 0.0580777 0
0.835435 0.0600474 0
0.836289 0.0620171 0
0.837144 0.0639868 0
0.837998 0.0659565 0
0.838852 0.0679263 0
0.839707 0.069896 0
0.840561 0.0718657 0
0.841416 0.0738354 0
0.821992 0.0596703 0
0.8229 0.0617607 0
0.823808 0.0638511 0
0.824716 0.0659416 0
0.825624 0.068032 0
0.826532 0.0701224 0
0.82744 0.0722129 0
0.828348 0.0743033 0
0.829256 0.0763937 0
0.830164 0.0784842 0
0.809948 0.0632715 0
0.81091 0.0654832 0
0.811872 0.067695 0
0.812834 0.0699068 0
0.813796 0.0721186 0
0.814759 0.0743304 0
0.815721 0.0765422 0
0.816683 0.078754 0
0.817645 0.0809657 0
0.818607 0.0831775 0
0.797606 0.0669037 0
0.798622 0.0692372 0
0.799639 0.0715706 0
0.800655 0.073904 0
0.801672 0.0762374 0
0.802688 0.0785708 0
0.803705 0.0809043 0
0.804721 0.0832377 0
0.805738 0.0855711 0
0.806754 0.0879045 0
0.784978 0.0705592 0
0.786049 0.0730142 0
0.78712 0.0754692 0
0.788191 0.0779242 0
0.789262 0.0803793 0
0.790333 0.0828343 0
0.791404 0.0852893 0
0.792475 0.0877444 0
0.793546 0.0901994 0
0.794617 0.0926544 0
0.772076 0.0742299 0
0.773202 0.0768062 0
0.774327 0.0793824 0
0.775453 0.0819587 0
0.776579 0.084535 0
0.777704 0.0871112 0
0.77883 0.0896875 0
0.779956 0.0922638 0
0.781081 0.09484 0
0.782207 0.0974163 0
0.758914 0.0779082 0
0.760094 0.080605 0
0.761274 0.0833018 0
0.762454 0.0859986 0
0.763634 0.0886955 0
0.764814 0.0913923 0
0.765994 0.0940891 0
0.767174 0.0967859 0
0.768354 0.0994827 0
0.769534 0.102179 0
0.745503 0.0815864 0
0.746737 0.0844027 0
0.747972 0.0872191 0
0.749206 0.0900354 0
0.75044 0.0928517 0
0.751675 0.095668 0
0.752909 0.0984843 0
0.754143 0.101301 0
0.755377 0.104117 0
0.756612 0.106933 0
0.731858 0.0852569 0
0.733146 0.0881914 0
0.734434 0.0911259 0
0.735722 0.0940604 0
0.73701 0.0969949 0
0.738298 0.0999294 0
0.739586 0.102864 0
0.740874 0.105798 0
0.742162 0.108733 0
0.743451 0.111667 0
0.717991 0.0889122 0
0.719332 0.0919632 0
0.720674 0.0950142 0
0.722015 0.0980652 0
0.723356 0.101116 0
0.724698 0.104167 0
0.726039 0.107218 0
0.72738 0.110269 0
0.728722 0.11332 0
0.730063 0.116371 0
0.703916 0.0925451 0
0.70531 0.0957106 0
0.706704 0.0988762 0
0.708098 0.102042 0
0.709492 0.105207 0
0.710886 0.108373 0
0.71228 0.111538 0
0.713674 0.114704 0
0.715068 0.117869 0
0.716462 0.121035 0
0.689648 0.0961484 0
0.691093 0.0994262 0
0.692539 0.102704 0
0.693985 0.105982 0
0.69543 0.10926 0
0.696876 0.112537 0
0.698322 0.115815 0
0.699767 0.119093 0
0.701213 0.122371 0
0.702659 0.125648 0
0.675199 0.0997153 0
0.676695 0.103103 0
0.678192 0.10649 0
0.679688 0.109878 0
0.681185 0.113265 0
0.682681 0.116652 0
0.684178 0.12004 0
0.685675 0.123427 0
0.687171 0.126815 0
0.688668 0.130202 0
0.660585 0.103239 0
0.662131 0.106733 0
0.663677 0.110227 0
0.665223 0.113722 0
0.666769 0.117216 0
0.668316 0.12071 0
0.669862 0.124204 0
0.671408 0.127698 0
0.672954 0.131192 0
0.674501 0.134687 0
0.645819 0.106713 0
0.647414 0.110311 0
0.649008 0.113909 0
0.650603 0.117507 0
0.652198 0.121104 0
0.653792 0.124702 0
0.655387 0.1283 0
0.656982 0.131897 0
0.658576 0.135495 0
0.660171 0.139093 0
0.630916 0.110132 0
0.632558 0.11383 0
0.6342 0.117527 0
0.635842 0.121225 0
0.637483 0.124923 0
0.639125 0.128621 0
0.640767 0.132319 0
0.642409 0.136017 0
0.644051 0.139715 0
0.645692 0.143412 0
0.615891 0.113488 0
0.617579 0.117283 0
0.619266 0.121077 0
0.620954 0.124871 0
0.622641 0.128665 0
0.624329 0.13246 0
0.626016 0.136254 0
0.627703 0.140048 0
0.629391 0.143842 0
0.631078 0.147637 0
0.600759 0.116778 0
0.602491 0.120665 0
0.604222 0.124551 0
0.605953 0.128438 0
0.607685 0.132324 0
0.609416 0.136211 0
0.611148 0.140098 0
0.612879 0.143984 0
0.614611 0.147871 0
0.616342 0.151758 0
0.585535 0.119995 0
0.587308 0.12397 0
0.589082 0.127944 0
0.590856 0.131919 0
0.592629 0.135894 0
0.594403 0.139869 0
0.596177 0.143843 0
0.59795 0.147818 0
0.599724 0.151793 0
0.601497 0.155768 0
0.570232 0.123134 0
0.572046 0.127192 0
0.57386 0.131251 0
0.575674 0.135309 0
0.577489 0.139368 0
0.579303 0.143426 0
0.581117 0.147485 0
0.582931 0.151543 0
0.584745 0.155601 0
0.586559 0.15966 0
0.554868 0.126191 0
0.55672 0.130328 0
0.558573 0.134466 0
0.560425 0.138603 0
0.562277 0.14274 0
0.56413 0.146878 0
0.565982 0.151015 0
[...]
POINT_DATA 2010
SCALARS eta double64 1
LOOKUP_TABLE default
0 0.111111 0.222222 0.333333 0.444444 0.555556 0.666667 0.777778 0.888889 1 
0 0.111111 0.222222 0.333333 0.444444 0.555556 0.666667 0.777778 0.888889 1 
0 0.111111 0.222222 0.333333 0.444444 0.555556 0.666667 0.777778 0.888889 1 
0 0.111111 0.222222 0.333333 0.444444 0.555556 0.666667 0.777778 0.888889 1 
0 0.111111 0.222222 0.333333 0.444444 0.555556 0.666667 0.777778 0.888889 1 
0 0.111111 0.222222 0.333333 0.444444 0.555556 0.666667 0.777778 0.888889 1 
0 0.111111 0.222222 0.333333 0.444444 0.555556 0.666667 0.777778 0.888889 1 
0 0.111111 0.222222 0.333333 0.444444 0.555556 0.666667 0.777778 0.888889 1 
0 0.111111 0.222222 0.333333 0.444444 0.555556 0.666667 0.777778 0.888889 1 
0 0.111111 0.222222 0.333333 0.444444 0.555556 0.666667 0.777778 0.888889 1 
0 0.111111 0.222222 0.333333 0.444444 0.555556 0.666667 0.777778 0.888889 1 
0 0.111111 0.222222 0.333333 0.444444 0.555556 0.666667 0.777778 0.888889 1 
0 0.111111 0.222222 0.333333 0.444444 0.555556 0.666667 0.777778 0.888889 1 
0 0.111111 0.222222 0.333333 0.444444 0.555556 0.666667 0.777778 0.888889 1 
0 0.111111 0.222222 0.333333 0.444444 0.555556 0.666667 0.777778 0.888889 1 
0 0.111111 0.222222 0.333333 0.444444 0.555556 0.666667 0.777778 0.888889 1 
0 0.111111 0.222222 0.333333 0.444444 0.555556 0.666667 0.777778 0.888889 1 
0 0.111111 0.222222 0.333333 0.444444 0.555556 0.666667 0.777778 0.888889 1 
0 0.111111 0.222222 0.333333 0.444444 0.555556 0.666667 0.777778 0.888889 1 
0 0.111111 0.222222 0.333333 0.444444 0.555556 0.666667 0.777778 0.888889 1 
0 0.111111 0.222222 0.333333 0.444444 0.555556 0.666667 0.777778 0.888889 1 
0 0.111111 0.222222 0.333333 0.444444 0.555556 0.666667 0.777778 0.888889 1 
0 0.111111 0.222222 0.333333 0.444444 0.555556 0.666667 0.777778 0.888889 1 
0 0.111111 0.222222 0.333333 0.444444 0.555556 0.666667 0.777778 0.888889 1 
0 0.111111 0.222222 0.333333 0.444444 0.555556 0.666667 0.777778 0.888889 1 
0 0.111111 0.222222 0.333333 0.444444 0.555556 0.666667 0.777778 0.888889 1 
0 0.111111 0.222222 0.333333 0.444444 0.555556 0.666667 0.777778 0.888889 1 
0 0.111111 0.222222 0.333333 0.444444 0.555556 0.666667 0.777778 0.888889 1 
0 0.111111 0.222222 0.333333 0.444444 0.555556 0.666667 0.777778 0.888889 1 
0 0.111111 0.222222 0.333333 0.444444 0.555556 0.666667 0.777778 0.888889 1 
0 0.111111 0.222222 0.333333 0.444444 0.555556 0.666667 0.777778 0.888889 1 
0 0.111111 0.222222 0.333333 0.444444 0.555556 0.666667 0.777778 0.888889 1 
0 0.111111 0.222222 0.333333 0.444444 0.555556 0.666667 0.777778 0.888889 1 
0 0.111111 0.222222 0.333333 0.444444 0.555556 0.666667 0.777778 0.888889 1 
0 0.111111 0.222222 0.333333 0.444444 0.555556 0.666667 0.777778 0.888889 1 
0 0.111111 0.222222 0.333333 0.444444 0.555556 0.666667 0.777778 0.888889 1 
0 0.111111 0.222222 0.333333 0.444444 0.555556 0.666667 0.777778 0.888889 1 
0 0.111111 0.222222 0.333333 0.444444 0.555556 0.666667 0.777778 0.888889 1 
0 0.111111 0.222222 0.333333 0.444444 0.555556 0.666667 0.777778 0.888889 1 
0 0.111111 0.222222 0.333333 0.444444 0.555556 0.666667 0.777778 0.888889 1 
0 0.111111 0.222222 0.333333 0.444444 0.555556 0.666667 0.777778 0.888889 1 
0 0.111111 0.222222 0.333333 0.444444 0.555556 0.666667 0.777778 0.888889 1 
0 0.111111 0.222222 0.333333 0.444444 0.555556 0.666667 0.777778 0.888889 1 
0 0.111111 0.222222 0.333333 0.444444 0.555556 0.666667 0.777778 0.888889 1 
0 0.111111 0.222222 0.333333 0.444444 0.555556 0.666667 0.777778 0.888889 1 
0 0.111111 0.222222 0.333333 0.444444 0.555556 0.666667 0.777778 0.888889 1 
0 0.111111 0.222222 0.333333 0.444444 0.555556 0.666667 0.777778 0.888889 1 
0 0.111111 0.222222 0.333333 0.444444 0.555556 0.666667 0.777778 0.888889 1 
0 0.111111 0.222222 0.333333 0.444444 0.555556 0.666667 0.777778 0.888889 1 
0 0.111111 0.222222 0.333333 0.444444 0.555556 0.666667 0.777778 0.888889 1 
0 0.111111 0.222222 0.333333 0.444444 0.555556 0.666667 0.777778 0.888889 1 
0 0.111111 0.222222 0.333333 0.444444 0.555556 0.666667 0.777778 0.888889 1 
0 0.111111 0.222222 0.333333 0.444444 0.555556 0.666667 0.777778 0.888889 1 
0 0.111111 0.222222 0.333333 0.444444 0.555556 0.666667 0.777778 0.888889 1 
0 0.111111 0.222222 0.333333 0.444444 0.555556 0.666667 0.777778 0.888889 1 
0 0.111111 0.222222 0.333333 0.444444 0.555556 0.666667 0.777778 0.888889 1 
0 0.111111 0.222222 0.333333 0.444444 0.555556 0.666667 0.777778 0.888889 1 
0 0.111111 0.222222 0.333333 0.444444 0.555556 0.666667 0.777778 0.888889 1 
0 0.111111 0.222222 0.333333 0.444444 0.555556 0.666667 0.777778 0.888889 1 
0 0.111111 0.222222 0.333333 0.444444 0.555556 0.666667 0.777778 0.888889 1 
0 0.111111 0.222222 0.333333 0.444444 0.555556 0.666667 0.777778 0.888889 1 
0 0.111111 0.222222 0.333333 0.444444 0.555556 0.666667 0.777778 0.888889 1 
0 0.111111 0.222222 0.333333 0.444444 0.555556 0.666667 0.777778 0.888889 1 
0 0.111111 0.222222 0.333333 0.444444 0.555556 0.666667 0.777778 0.888889 1 
0 0.111111 0.222222 0.333333 0.444444 0.555556 0.666667 0.777778 0.888889 1 
0 0.111111 0.222222 0.333333 0.444444 0.555556 0.666667 0.777778 0.888889 1 
0 0.111111 0.222222 0.333333 0.444444 0.555556 0.666667 0.777778 0.888889 1 
0 0.111111 0.222222 0.333333 0.444444 0.555556 0.666667 0.777778 0.888889 1 
0 0.111111 0.222222 0.333333 0.444444 0.555556 0.666667 0.777778 0.888889 1 
0 0.111111 0.222222 0.333333 0.444444 0.555556 0.666667 0.777778 0.888889 1 
0 0.111111 0.222222 0.333333 0.444444 0.555556 0.666667 0.777778 0.888889 1 
0 0.111111 0.222222 0.333333 0.444444 0.555556 0.666667 0.777778 0.888889 1 
0 0.111111 0.222222 0.333333 0.444444 0.555556 0.666667 0.777778 0.888889 1 
0 0.111111 0.222222 0.333333 0.444444 0.555556 0.666667 0.777778 0.888889 1 
0 0.111111 0.222222 0.333333 0.444444 0.555556 0.666667 0.777778 0.888889 1 
0 0.111111 0.222222 0.333333 0.444444 0.555556 0.666667 0.777778 0.888889 1 
0 0.111111 0.222222 0.333333 0.444444 0.555556 0.666667 0.777778 0.888889 1 
0 0.111111 0.222222 0.333333 0.444444 0.555556 0.666667 0.777778 0.888889 1 
0 0.111111 0.222222 0.333333 0.444444 0.555556 0.666667 0.777778 0.888889 1 
0 0.111111 0.222222 0.333333 0.444444 0.555556 0.666667 0.777778 0.888889 1 
0 0.111111 0.222222 0.333333 0.444444 0.555556 0.666667 0.777778 0.888889 1 
0 0.111111 0.222222 0.333333 0.444444 0.555556 0.666667 0.777778 0.888889 1 
0 0.111111 0.222222 0.333333 0.444444 0.555556 0.666667 0.777778 0.888889 1 
0 0.111111 0.222222 0.333333 0.444444 0.555556 0.666667 0.777778 0.888889 1 
0 0.111111 0.222222 0.333333 0.444444 0.555556 0.666667 0.777778 0.888889 1 
0 0.111111 0.222222 0.333333 0.444444 0.555556 0.666667 0.777778 0.888889 1 
0 0.111111 0.222222 0.333333 0.444444 0.555556 0.666667 0.777778 0.888889 1 
0 0.111111 0.222222 0.333333 0.444444 0.555556 0.666667 0.777778 0.888889 1 
0 0.111111 0.222222 0.333333 0.444444 0.555556 0.666667 0.777778 0.888889 1 
0 0.111111 0.222222 0.333333 0.444444 0.555556 0.666667 0.777778 0.888889 1 
0 0.111111 0.222222 0.333333 0.444444 0.555556 0.666667 0.777778 0.888889 1 
0 0.111111 0.222222 0.333333 0.444444 0.555556 0.666667 0.777778 0.888889 1 
0 0.111111 0.222222 0.333333 0.444444 0.555556 0.666667 0.777778 0.888889 1 
0 0.111111 0.222222 0.333333 0.444444 0.555556 0.666667 0.777778 0.888889 1 
0 0.111111 0.222222 0.333333 0.444444 0.555556 0.666667 0.777778 0.888889 1 
0 0.111111 0.222222 0.333333 0.444444 0.555556 0.666667 0.777778 0.888889 1 
0 0.111111 0.222222 0.333333 0.444444 0.555556 0.666667 0.777778 0.888889 1 
0 0.111111 0.222222 0.333333 0.444444 0.555556 0.666667 0.777778 0.888889 1 
0 0.111111 0.222222 0.333333 0.444444 0.555556 0.666667 0.777778 0.888889 1 
0 0.111111 0.222222 0.333333 0.444444 0.555556 0.666667 0.777778 0.888889 1 
0 0.111111 0.222222 0.333333 0.444444 0.555556 0.666667 0.777778 0.888889 1 
0 0.111111 0.222222 0.333333 0.444444 0.555556 0.666667 0.777778 0.888889 1 
0 0.111111 0.222222 0.333333 0.444444 0.555556 0.666667 0.777778 0.888889 1 
0 0.111111 0.222222 0.333333 0.444444 0.555556 0.666667 0.777778 0.888889 1 
0 0.111111 0.222222 0.333333 0.444444 0.555556 0.666667 0.777778 0.888889 1 
0 0.111111 0.222222 0.333333 0.444444 0.555556 0.666667 0.777778 0.888889 1 
0 0.111111 0.222222 0.333333 0.444444 0.555556 0.666667 0.777778 0.888889 1 
0 0.111111 0.222222 0.333333 0.444444 0.555556 0.666667 0.777778 0.888889 1 
0 0.111111 0.222222 0.333333 0.444444 0.555556 0.666667 0.777778 0.888889 1 
0 0.111111 0.222222 0.333333 0.444444 0.555556 0.666667 0.777778 0.888889 1 
0 0.111111 0.222222 0.333333 0.444444 0.555556 0.666667 0.777778 0.888889 1 
0 0.111111 0.222222 0.333333 0.444444 0.555556 0.666667 0.777778 0.888889 1 
0 0.111111 0.222222 0.333333 0.444444 0.555556 0.666667 0.777778 0.888889 1 
0 0.111111 0.222222 0.333333 0.444444 0.555556 0.666667 0.777778 0.888889 1 
0 0.111111 0.222222 0.333333 0.444444 0.555556 0.666667 0.777778 0.888889 1 
0 0.111111 0.222222 0.333333 0.444444 0.555556 0.666667 0.777778 0.888889 1 
0 0.111111 0.222222 0.333333 0.444444 0.555556 0.666667 0.777778 0.888889 1 
0 0.111111 0.222222 0.333333 0.444444 0.555556 0.666667 0.777778 0.888889 1 
0 0.111111 0.222222 0.333333 0.444444 0.555556 0.666667 0.777778 0.888889 1 
0 0.111111 0.222222 0.333333 0.444444 0.555556 0.666667 0.777778 0.888889 1 
0 0.111111 0.222222 0.333333 0.444444 0.555556 0.666667 0.777778 0.888889 1 
0 0.111111 0.222222 0.333333 0.444444 0.555556 0.666667 0.777778 0.888889 1 
0 0.111111 0.222222 0.333333 0.444444 0.555556 0.666667 0.777778 0.888889 1 
0 0.111111 0.222222 0.333333 0.444444 0.555556 0.666667 0.777778 0.888889 1 
0 0.111111 0.222222 0.333333 0.444444 0.555556 0.666667 0.777778 0.888889 1 
0 0.111111 0.222222 0.333333 0.444444 0.555556 0.666667 0.777778 0.888889 1 
0 0.111111 0.222222 0.333333 0.444444 0.555556 0.666667 0.777778 0.888889 1 
0 0.111111 0.222222 0.333333 0.444444 0.555556 0.666667 0.777778 0.888889 1 
0 0.111111 0.222222 0.333333 0.444444 0.555556 0.666667 0.777778 0.888889 1 
0 0.111111 0.222222 0.333333 0.444444 0.555556 0.666667 0.777778 0.888889 1 
0 0.111111 0.222222 0.333333 0.444444 0.555556 0.666667 0.777778 0.888889 1 
0 0.111111 0.222222 0.333333 0.444444 0.555556 0.666667 0.777778 0.888889 1 
0 0.111111 0.222222 0.333333 0.444444 0.555556 0.666667 0.777778 0.888889 1 
0 0.111111 0.222222 0.333333 0.444444 0.555556 0.666667 0.777778 0.888889 1 
0 0.111111 0.222222 0.333333 0.444444 0.555556 0.666667 0.777778 0.888889 1 
0 0.111111 0.222222 0.333333 0.444444 0.555556 0.666667 0.777778 0.888889 1 
0 0.111111 0.222222 0.333333 0.444444 0.555556 0.666667 0.777778 0.888889 1 
0 0.111111 0.222222 0.333333 0.444444 0.555556 0.666667 0.777778 0.888889 1 
0 0.111111 0.222222 0.333333 0.444444 0.555556 0.666667 0.777778 0.888889 1 
0 0.111111 0.222222 0.333333 0.444444 0.555556 0.666667 0.777778 0.888889 1 
0 0.111111 0.222222 0.333333 0.444444 0.555556 0.666667 0.777778 0.888889 1 
0 0.111111 0.222222 0.333333 0.444444 0.555556 0.666667 0.777778 0.888889 1 
0 0.111111 0.222222 0.333333 0.444444 0.555556 0.666667 0.777778 0.888889 1 
0 0.111111 0.222222 0.333333 0.444444 0.555556 0.666667 0.777778 0.888889 1 
0 0.111111 0.222222 0.333333 0.444444 0.555556 0.666667 0.777778 0.888889 1 
0 0.111111 0.222222 0.333333 0.444444 0.555556 0.666667 0.777778 0.888889 1 
0 0.111111 0.222222 0.333333 0.444444 0.555556 0.666667 0.777778 0.888889 1 
0 0.111111 0.222222 0.333333 0.444444 0.555556 0.666667 0.777778 0.888889 1 
0 0.111111 0.222222 0.333333 0.444444 0.555556 0.666667 0.777778 0.888889 1 
0 0.111111 0.222222 0.333333 0.444444 0.555556 0.666667 0.777778 0.888889 1 
0 0.111111 0.222222 0.333333 0.444444 0.555556 0.666667 0.777778 0.888889 1 
0 0.111111 0.222222 0.333333 0.444444 0.555556 0.666667 0.777778 0.888889 1 
0 0.111111 0.222222 0.333333 0.444444 0.555556 0.666667 0.777778 0.888889 1 
0 0.111111 0.222222 0.333333 0.444444 0.555556 0.666667 0.777778 0.888889 1 
0 0.111111 0.222222 0.333333 0.444444 0.555556 0.666667 0.777778 0.888889 1 
0 0.111111 0.222222 0.333333 0.444444 0.555556 0.666667 0.777778 0.888889 1 
0 0.111111 0.222222 0.333333 0.444444 0.555556 0.666667 0.777778 0.888889 1 
0 0.111111 0.222222 0.333333 0.444444 0.555556 0.666667 0.777778 0.888889 1 
0 0.111111 0.222222 0.333333 0.444444 0.555556 0.666667 0.777778 0.888889 1 
0 0.111111 0.222222 0.333333 0.444444 0.555556 0.666667 0.777778 0.888889 1 
0 0.111111 0.222222 0.333333 0.444444 0.555556 0.666667 0.777778 0.888889 1 
0 0.111111 0.222222 0.333333 0.444444 0.555556 0.666667 0.777778 0.888889 1 
0 0.111111 0.222222 0.333333 0.444444 0.555556 0.666667 0.777778 0.888889 1 
0 0.111111 0.222222 0.333333 0.444444 0.555556 0.666667 0.777778 0.888889 1 
0 0.111111 0.222222 0.333333 0.444444 0.555556 0.666667 0.777778 0.888889 1 
0 0.111111 0.222222 0.333333 0.444444 0.555556 0.666667 0.777778 0.888889 1 
0 0.111111 0.222222 0.333333 0.444444 0.555556 0.666667 0.777778 0.888889 1 
0 0.111111 0.222222 0.333333 0.444444 0.555556 0.666667 0.777778 0.888889 1 
0 0.111111 0.222222 0.333333 0.444444 0.555556 0.666667 0.777778 0.888889 1 
0 0.111111 0.222222 0.333333 0.444444 0.555556 0.666667 0.777778 0.888889 1 
0 0.111111 0.222222 0.333333 0.444444 0.555556 0.666667 0.777778 0.888889 1 
0 0.111111 0.222222 0.333333 0.444444 0.555556 0.666667 0.777778 0.888889 1 
0 0.111111 0.222222 0.333333 0.444444 0.555556 0.666667 0.777778 0.888889 1 
0 0.111111 0.222222 0.333333 0.444444 0.555556 0.666667 0.777778 0.888889 1 
0 0.111111 0.222222 0.333333 0.444444 0.555556 0.666667 0.777778 0.888889 1 
0 0.111111 0.222222 0.333333 0.444444 0.555556 0.666667 0.777778 0.888889 1 
0 0.111111 0.222222 0.333333 0.444444 0.555556 0.666667 0.777778 0.888889 1 
0 0.111111 0.222222 0.333333 0.444444 0.555556 0.666667 0.777778 0.888889 1 
0 0.111111 0.222222 0.333333 0.444444 0.555556 0.666667 0.777778 0.888889 1 
0 0.111111 0.222222 0.333333 0.444444 0.555556 0.666667 0.777778 0.888889 1 
0 0.111111 0.222222 0.333333 0.444444 0.555556 0.666667 0.777778 0.888889 1 
0 0.111111 0.222222 0.333333 0.444444 0.555556 0.666667 0.777778 0.888889 1 
0 0.111111 0.222222 0.333333 0.444444 0.555556 0.666667 0.777778 0.888889 1 
0 0.111111 0.222222 0.333333 0.444444 0.555556 0.666667 0.777778 0.888889 1 
0 0.111111 0.222222 0.333333 0.444444 0.555556 0.666667 0.777778 0.888889 1 
0 0.111111 0.222222 0.333333 0.444444 0.555556 0.666667 0.777778 0.888889 1 
0 0.111111 0.222222 0.333333 0.444444 0.555556 0.666667 0.777778 0.888889 1 
0 0.111111 0.222222 0.333333 0.444444 0.555556 0.666667 0.777778 0.888889 1 
0 0.111111 0.222222 0.333333 0.444444 0.555556 0.666667 0.777778 0.888889 1 
0 0.111111 0.222222 0.333333 0.444444 0.555556 0.666667 0.777778 0.888889 1 
0 0.111111 0.222222 0.333333 0.444444 0.555556 0.666667 0.777778 0.888889 1 
0 0.111111 0.222222 0.333333 0.444444 0.555556 0.666667 0.777778 0.888889 1 
0 0.111111 0.222222 0.333333 0.444444 0.555556 0.666667 0.777778 0.888889 1 
0 0.111111 0.222222 0.333333 0.444444 0.555556 0.666667 0.777778 0.888889 1 
0 0.111111 0.222222 0.333333 0.444444 0.555556 0.666667 0.777778 0.888889 1 
0 0.111111 0.222222 0.333333 0.444444 0.555556 0.666667 0.777778 0.888889 1 
0 0.111111 0.222222 0.333333 0.444444 0.555556 0.666667 0.777778 0.888889 1 
0 0.111111 0.222222 0.333333 0.444444 0.555556 0.666667 0.777778 0.888889 1 
0 0.111111 0.222222 0.333333 0.444444 0.555556 0.666667 0.777778 0.888889 1 
0 0.111111 0.222222 0.333333 0.444444 0.555556 0.666667 0.777778 0.888889 1 
0 0.111111 0.222222 0.333333 0.444444 0.555556 0.666667 0.777778 0.888889 1 
