# vtk DataFile Version 2.0
Airfoil Example
ASCII
DATASET STRUCTURED_GRID
DIMENSIONS 201 10 1
POINTS 2010 double64
1 -9.15287e-34 0
1 -8.13588e-34 0
1 -7.1189e-34 0
1 -6.10191e-34 0
1 -5.08493e-34 0
1 -4.06794e-34 0
1 -3.05096e-34 0
1 -2.03397e-34 0
1 -1.01699e-34 0
1 0 0
0.999758 8.92592e-05 0
0.999759 9.2473e-05 0
0.999761 9.56869e-05 0
0.999762 9.89007e-05 0
0.999763 0.000102115 0
0.999765 0.000105328 0
0.999766 0.000108542 0
0.999767 0.000111756 0
0.999769 0.00011497 0
0.99977 0.000118184 0
0.999032 0.000356819 0
0.999037 0.000369665 0
0.999043 0.000382511 0
0.999048 0.000395357 0
0.999054 0.000408204 0
0.999059 0.00042105 0
0.999065 0.000433896 0
0.99907 0.000446742 0
0.999075 0.000459588 0
0.999081 0.000472435 0
0.997822 0.000802026 0
0.997835 0.000830895 0
0.997847 0.000859765 0
0.997859 0.000888635 0
0.997871 0.000917505 0
0.997884 0.000946375 0
0.997896 0.000975244 0
0.997908 0.00100411 0
0.997921 0.00103298 0
0.997933 0.00106185 0
0.996131 0.00142379 0
0.996153 0.00147503 0
0.996174 0.00152627 0
0.996196 0.00157751 0
0.996218 0.00162875 0
0.99624 0.00167999 0
0.996262 0.00173123 0
0.996283 0.00178247 0
0.996305 0.00183371 0
0.996327 0.00188495 0
0.993959 0.0022206 0
0.993993 0.00230049 0
0.994027 0.00238039 0
0.994061 0.00246028 0
0.994095 0.00254017 0
0.994129 0.00262006 0
0.994163 0.00269995 0
0.994197 0.00277984 0
0.994231 0.00285973 0
0.994265 0.00293962 0
0.991308 0.00319052 0
0.991357 0.00330526 0
0.991406 0.00342 0
0.991455 0.00353475 0
0.991504 0.00364949 0
0.991553 0.00376424 0
0.991602 0.00387898 0
0.99165 0.00399373 0
0.991699 0.00410847 0
0.991748 0.00422322 0
0.988182 0.00433117 0
0.988249 0.00448687 0
0.988315 0.00464257 0
0.988381 0.00479827 0
0.988448 0.00495397 0
0.988514 0.00510967 0
0.98858 0.00526537 0
0.988647 0.00542107 0
0.988713 0.00557677 0
0.988779 0.00573248 0
0.984584 0.00563978 0
0.98467 0.00584243 0
0.984756 0.00604507 0
0.984843 0.00624772 0
0.984929 0.00645036 0
0.985015 0.00665301 0
0.985102 0.00685565 0
0.985188 0.00705829 0
0.985274 0.00726094 0
0.985361 0.00746358 0
0.980516 0.00711319 0
0.980625 0.00736863 0
0.980733 0.00762407 0
0.980842 0.00787951 0
0.980951 0.00813496 0
0.98106 0.0083904 0
0.981169 0.00864584 0
0.981278 0.00890128 0
0.981387 0.00915673 0
0.981496 0.00941217 0
0.975982 0.0087478 0
0.976116 0.00906175 0
0.97625 0.00937569 0
0.976384 0.00968964 0
0.976518 0.0100036 0
0.976652 0.0103175 0
0.976786 0.0106315 0
0.97692 0.0109454 0
0.977054 0.0112594 0
0.977188 0.0115733 0
0.970989 0.0105397 0
0.97115 0.0109177 0
0.971311 0.0112957 0
0.971473 0.0116736 0
0.971634 0.0120516 0
0.971795 0.0124296 0
0.971957 0.0128076 0
0.972118 0.0131856 0
0.972279 0.0135636 0
0.97244 0.0139416 0
0.965539 0.0124845 0
0.96573 0.0129319 0
0.965921 0.0133793 0
0.966112 0.0138267 0
0.966303 0.0142741 0
0.966494 0.0147215 0
0.966685 0.0151689 0
0.966876 0.0156162 0
0.967067 0.0160636 0
0.967258 0.016511 0
0.959639 0.0145775 0
0.959862 0.0150995 0
0.960085 0.0156215 0
0.960308 0.0161434 0
0.960531 0.0166654 0
0.960754 0.0171874 0
0.960977 0.0177093 0
0.9612 0.0182313 0
0.961423 0.0187533 0
0.961646 0.0192752 0
0.953294 0.0168138 0
0.953551 0.0174153 0
0.953808 0.0180168 0
0.954065 0.0186183 0
0.954323 0.0192197 0
0.95458 0.0198212 0
0.954837 0.0204227 0
0.955094 0.0210242 0
0.955352 0.0216257 0
0.955609 0.0222272 0
0.94651 0.0191879 0
0.946803 0.0198736 0
0.947097 0.0205594 0
0.947391 0.0212451 0
0.947684 0.0219309 0
0.947978 0.0226166 0
0.948271 0.0233024 0
0.948565 0.0239882 0
0.948858 0.0246739 0
0.949152 0.0253597 0
0.939294 0.0216942 0
0.939626 0.0224687 0
0.939958 0.0232432 0
0.94029 0.0240177 0
0.940622 0.0247922 0
0.940953 0.0255667 0
0.941285 0.0263412 0
0.941617 0.0271157 0
0.941949 0.0278903 0
0.942281 0.0286648 0
0.931654 0.0243267 0
0.932026 0.0251942 0
0.932398 0.0260617 0
0.93277 0.0269292 0
0.933142 0.0277967 0
0.933514 0.0286643 0
0.933886 0.0295318 0
0.934258 0.0303993 0
0.93463 0.0312668 0
0.935002 0.0321343 0
0.923596 0.0270791 0
0.92401 0.0280436 0
0.924424 0.0290082 0
0.924838 0.0299727 0
0.925252 0.0309372 0
0.925666 0.0319017 0
0.92608 0.0328662 0
0.926494 0.0338308 0
0.926908 0.0347953 0
0.927322 0.0357598 0
0.915129 0.029945 0
0.915587 0.0310103 0
0.916045 0.0320755 0
0.916502 0.0331408 0
0.91696 0.034206 0
0.917418 0.0352712 0
0.917875 0.0363365 0
0.918333 0.0374017 0
0.918791 0.0384669 0
0.919248 0.0395322 0
0.906261 0.0329177 0
0.906764 0.0340871 0
0.907267 0.0352565 0
0.90777 0.0364259 0
0.908273 0.0375953 0
0.908776 0.0387647 0
0.909279 0.0399341 0
0.909781 0.0411035 0
0.910284 0.0422729 0
0.910787 0.0434423 0
0.897 0.0359901 0
0.89755 0.0372668 0
0.898099 0.0385435 0
0.898649 0.0398202 0
0.899199 0.0410969 0
0.899748 0.0423737 0
0.900298 0.0436504 0
0.900848 0.0449271 0
0.901398 0.0462038 0
0.901947 0.0474805 0
0.887355 0.0391551 0
0.887953 0.040542 0
0.888551 0.0419289 0
0.889149 0.0433157 0
0.889747 0.0447026 0
0.890345 0.0460895 0
0.890943 0.0474764 0
0.89154 0.0488633 0
0.892138 0.0502502 0
0.892736 0.051637 0
0.877337 0.0424054 0
0.877984 0.043905 0
0.878632 0.0454046 0
0.879279 0.0469042 0
0.879926 0.0484038 0
0.880573 0.0499034 0
0.88122 0.051403 0
0.881868 0.0529026 0
0.882515 0.0544022 0
0.883162 0.0559018 0
0.866955 0.0457335 0
0.867652 0.0473481 0
0.86835 0.0489626 0
0.869048 0.0505772 0
0.869745 0.0521917 0
0.870443 0.0538063 0
0.871141 0.0554209 0
0.871838 0.0570354 0
0.872536 0.05865 0
0.873234 0.0602646 0
0.856218 0.0491318 0
0.856967 0.0508632 0
0.857716 0.0525947 0
0.858466 0.0543261 0
0.859215 0.0560576 0
0.859964 0.057789 0
0.860713 0.0595205 0
0.861462 0.0612519 0
0.862211 0.0629834 0
0.86296 0.0647148 0
0.845138 0.0525925 0
0.84594 0.0544425 0
0.846741 0.0562924 0
0.847543 0.0581424 0
0.848344 0.0599923 0
0.849145 0.0618422 0
0.849947 0.0636922 0
0.850748 0.0655421 0
0.85155 0.0673921 0
0.852351 0.069242 0
0.833726 0.056108 0
0.83458 0.0580777 0
0.835435 0.0600474 0
0.836289 0.0620171 0
0.837144 0.0639868 0
0.837998 0.0659565 0
0.838852 0.0679263 0
0.839707 0.069896 0
0.840561 0.0718657 0
0.841416 0.0738354 0
0.821992 0.0596703 0
0.8229 0.0617607 0
0.823808 0.0638511 0
0.824716 0.0659416 0
0.825624 0.068032 0
0.826532 0.0701224 0
0.82744 0.0722129 0
0.828348 0.0743033 0
0.829256 0.0763937 0
0.830164 0.0784842 0
0.809948 0.0632715 0
0.81091 0.0654832 0
0.811872 0.067695 0
0.812834 0.0699068 0
0.813796 0.0721186 0
0.814759 0.0743304 0
0.815721 0.0765422 0
0.816683 0.078754 0
0.817645 0.0809657 0
0.818607 0.0831775 0
0.797606 0.0669037 0
0.798622 0.0692372 0
0.799639 0.0715706 0
0.800655 0.073904 0
0.801672 0.0762374 0
0.802688 0.0785708 0
0.803705 0.0809043 0
0.804721 0.0832377 0
0.805738 0.0855711 0
0.806754 0.0879045 0
0.784978 0.0705592 0
0.786049 0.0730142 0
0.78712 0.0754692 0
0.788191 0.0779242 0
0.789262 0.0803793 0
0.790333 0.0828343 0
0.791404 0.0852893 0
0.792475 0.0877444 0
0.793546 0.0901994 0
0.794617 0.0926544 0
0.772076 0.0742299 0
0.773202 0.0768062 0
0.774327 0.0793824 0
0.775453 0.0819587 0
0.776579 0.084535 0
0.777704 0.0871112 0
0.77883 0.0896875 0
0.779956 0.0922638 0
0.781081 0.09484 0
0.782207 0.0974163 0
0.758914 0.0779082 0
0.760094 0.080605 0
0.761274 0.0833018 0
0.762454 0.0859986 0
0.763634 0.0886955 0
0.764814 0.0913923 0
0.765994 0.0940891 0
0.767174 0.0967859 0
0.768354 0.0994827 0
0.769534 0.102179 0
0.745503 0.0815864 0
0.746737 0.0844027 0
0.747972 0.0872191 0
0.749206 0.0900354 0
0.75044 0.0928517 0
0.751675 0.095668 0
0.752909 0.0984843 0
0.754143 0.101301 0
0.755377 0.104117 0
0.756612 0.106933 0
0.731858 0.0852569 0
0.733146 0.0881914 0
0.734434 0.0911259 0
0.735722 0.0940604 0
0.73701 0.0969949 0
0.738298 0.0999294 0
0.739586 0.102864 0
0.740874 0.105798 0
0.742162 0.108733 0
0.743451 0.111667 0
0.717991 0.0889122 0
0.719332 0.0919632 0
0.720674 0.0950142 0
0.722015 0.0980652 0
0.723356 0.101116 0
0.724698 0.104167 0
0.726039 0.107218 0
0.72738 0.110269 0
0.728722 0.11332 0
0.730063 0.116371 0
0.703916 0.0925451 0
0.70531 0.0957106 0
0.706704 0.0988762 0
0.708098 0.102042 0
0.709492 0.105207 0
0.710886 0.108373 0
0.71228 0.111538 0
0.713674 0.114704 0
0.715068 0.117869 0
0.716462 0.121035 0
0.689648 0.0961484 0
0.691093 0.0994262 0
0.692539 0.102704 0
0.693985 0.105982 0
0.69543 0.10926 0
0.696876 0.112537 0
0.698322 0.115815 0
0.699767 0.119093 0
0.701213 0.122371 0
0.702659 0.125648 0
0.675199 0.0997153 0
0.676695 0.103103 0
0.678192 0.10649 0
0.679688 0.109878 0
0.681185 0.113265 0
0.682681 0.116652 0
0.684178 0.12004 0
0.685675 0.123427 0
0.687171 0.126815 0
0.688668 0.130202 0
0.660585 0.103239 0
0.662131 0.106733 0
0.663677 0.110227 0
0.665223 0.113722 0
0.666769 0.117216 0
0.668316 0.12071 0
0.669862 0.124204 0
0.671408 0.127698 0
0.672954 0.131192 0
0.674501 0.134687 0
0.645819 0.106713 0
0.647414 0.110311 0
0.649008 0.113909 0
0.650603 0.117507 0
0.652198 0.121104 0
0.653792 0.124702 0
0.655387 0.1283 0
0.656982 0.131897 0
0.658576 0.135495 0
0.660171 0.139093 0
0.630916 0.110132 0
0.632558 0.11383 0
0.6342 0.117527 0
0.635842 0.121225 0
0.637483 0.124923 0
0.639125 0.128621 0
0.640767 0.132319 0
0.642409 0.136017 0
0.644051 0.139715 0
0.645692 0.143412 0
0.615891 0.113488 0
0.617579 0.117283 0
0.619266 0.121077 0
0.620954 0.124871 0
0.622641 0.128665 0
0.624329 0.13246 0
0.626016 0.136254 0
0.627703 0.140048 0
0.629391 0.143842 0
0.631078 0.147637 0
0.600759 0.116778 0
0.602491 0.120665 0
0.604222 0.124551 0
0.605953 0.128438 0
0.607685 0.132324 0
0.609416 0.136211 0
0.611148 0.140098 0
0.612879 0.143984 0
0.614611 0.147871 0
0.616342 0.151758 0
0.585535 0.119995 0
0.587308 0.12397 0
0.589082 0.127944 0
0.590856 0.131919 0
0.592629 0.135894 0
0.594403 0.139869 0
0.596177 0.143843 0
0.59795 0.147818 0
0.599724 0.151793 0
0.601497 0.155768 0
0.570232 0.123134 0
0.572046 0.127192 0
0.57386 0.131251 0
0.575674 0.135309 0
0.577489 0.139368 0
0.579303 0.143426 0
0.581117 0.147485 0
0.582931 0.151543 0
0.584745 0.155601 0
0.586559 0.15966 0
0.554868 0.126191 0
0.55672 0.130328 0
0.558573 0.134466 0
0.560425 0.138603 0
0.562277 0.14274 0
0.56413 0.146878 0
0.565982 0.151015 0
[...]
POINT_DATA 2010
SCALARS CHORD_SENS double64 1
LOOKUP_TABLE default
1 1 1 1 1 1 1 1 1 1 
0.999705 0.999706 0.999707 0.999708 0.999709 0.99971 0.999711 0.999712 0.999713 0.999713 
0.998822 0.998826 0.998829 0.998833 0.998836 0.99884 0.998843 0.998847 0.998851 0.998854 
0.997351 0.997359 0.997367 0.997375 0.997383 0.997391 0.997399 0.997407 0.997415 0.997423 
0.995294 0.995308 0.995322 0.995337 0.995351 0.995365 0.99538 0.995394 0.995408 0.995423 
0.992654 0.992676 0.992698 0.992721 0.992743 0.992766 0.992788 0.992811 0.992833 0.992855 
0.989433 0.989466 0.989498 0.98953 0.989563 0.989595 0.989628 0.98966 0.989692 0.989725 
0.985637 0.985682 0.985726 0.98577 0.985814 0.985858 0.985902 0.985947 0.985991 0.986035 
0.98127 0.981328 0.981386 0.981444 0.981502 0.98156 0.981618 0.981676 0.981734 0.981792 
0.976338 0.976411 0.976485 0.976558 0.976632 0.976705 0.976779 0.976853 0.976926 0.977 
0.970846 0.970937 0.971028 0.971119 0.97121 0.971301 0.971393 0.971484 0.971576 0.971667 
0.964802 0.964912 0.965023 0.965133 0.965244 0.965355 0.965466 0.965577 0.965689 0.9658 
0.958213 0.958345 0.958477 0.958609 0.958742 0.958874 0.959007 0.95914 0.959273 0.959407 
0.951088 0.951243 0.951399 0.951555 0.951711 0.951867 0.952024 0.952181 0.952339 0.952496 
0.943435 0.943616 0.943797 0.943979 0.944161 0.944344 0.944527 0.94471 0.944893 0.945078 
0.935265 0.935473 0.935683 0.935892 0.936102 0.936313 0.936524 0.936736 0.936948 0.937161 
0.926587 0.926825 0.927065 0.927304 0.927545 0.927786 0.928028 0.92827 0.928514 0.928758 
0.917412 0.917683 0.917954 0.918227 0.9185 0.918774 0.919049 0.919324 0.919601 0.919878 
0.907753 0.908058 0.908364 0.908671 0.908979 0.909288 0.909598 0.90991 0.910222 0.910535 
0.89762 0.897962 0.898305 0.898649 0.898994 0.899341 0.899689 0.900039 0.90039 0.900742 
0.887027 0.887408 0.88779 0.888174 0.888559 0.888946 0.889335 0.889725 0.890117 0.89051 
0.875987 0.876409 0.876834 0.877259 0.877687 0.878117 0.878548 0.878982 0.879417 0.879855 
0.864514 0.86498 0.865449 0.865919 0.866392 0.866867 0.867344 0.867824 0.868305 0.868789 
0.852623 0.853135 0.85365 0.854168 0.854688 0.855211 0.855737 0.856265 0.856796 0.857329 
0.840327 0.840889 0.841453 0.84202 0.842591 0.843164 0.843741 0.844321 0.844904 0.84549 
0.827644 0.828256 0.828872 0.829492 0.830116 0.830743 0.831374 0.832008 0.832646 0.833287 
0.814587 0.815254 0.815925 0.8166 0.817279 0.817962 0.81865 0.819341 0.820037 0.820737 
0.801175 0.801898 0.802626 0.803359 0.804097 0.804839 0.805586 0.806339 0.807095 0.807857 
0.787423 0.788205 0.788994 0.789787 0.790586 0.791391 0.792201 0.793016 0.793837 0.794663 
0.773349 0.774194 0.775045 0.775902 0.776765 0.777635 0.77851 0.779392 0.78028 0.781174 
0.758971 0.759881 0.760797 0.761721 0.762651 0.763589 0.764533 0.765484 0.766443 0.767408 
0.744307 0.745284 0.746269 0.747262 0.748263 0.749271 0.750287 0.751311 0.752343 0.753382 
0.729376 0.730423 0.731479 0.732544 0.733618 0.734701 0.735792 0.736891 0.738 0.739117 
0.714196 0.715316 0.716447 0.717587 0.718737 0.719896 0.721066 0.722244 0.723432 0.72463 
0.698787 0.699984 0.701191 0.702409 0.703638 0.704878 0.706128 0.707389 0.70866 0.709942 
0.683169 0.684445 0.685732 0.687031 0.688342 0.689665 0.691 0.692346 0.693703 0.695072 
0.667362 0.668719 0.67009 0.671473 0.67287 0.674279 0.6757 0.677135 0.678582 0.680042 
0.651387 0.652829 0.654285 0.655756 0.65724 0.658739 0.660251 0.661777 0.663317 0.66487 
0.635265 0.636794 0.638339 0.6399 0.641476 0.643066 0.644672 0.646293 0.647929 0.649579 
0.619017 0.620637 0.622274 0.623927 0.625597 0.627284 0.628986 0.630705 0.63244 0.63419 
0.602666 0.604379 0.606111 0.60786 0.609627 0.611412 0.613214 0.615034 0.616871 0.618724 
0.586233 0.588043 0.589872 0.59172 0.593587 0.595474 0.597379 0.599302 0.601244 0.603204 
0.569743 0.571651 0.573581 0.575531 0.577501 0.579492 0.581503 0.583533 0.585583 0.587653 
0.553217 0.555228 0.557261 0.559315 0.561392 0.56349 0.565609 0.567749 0.56991 0.572092 
0.536681 0.538797 0.540936 0.543098 0.545283 0.547491 0.549722 0.551974 0.554249 0.556546 
0.520159 0.522382 0.52463 0.526903 0.5292 0.53152 0.533865 0.536233 0.538624 0.541038 
0.503677 0.50601 0.50837 0.510755 0.513166 0.515603 0.518064 0.52055 0.523059 0.525593 
0.48726 0.489707 0.492181 0.494682 0.49721 0.499764 0.502344 0.50495 0.507581 0.510236 
0.470936 0.473498 0.476089 0.478708 0.481355 0.48403 0.486731 0.489459 0.492213 0.494993 
0.454733 0.457413 0.460124 0.462863 0.465632 0.468428 0.471253 0.474105 0.476984 0.47989 
0.43868 0.44148 0.444312 0.447174 0.450066 0.452988 0.455937 0.458915 0.461921 0.464953 
0.422806 0.42573 0.428685 0.431672 0.434689 0.437736 0.440813 0.443918 0.447051 0.450211 
0.407144 0.410193 0.413274 0.416387 0.419531 0.422705 0.425909 0.429142 0.432403 0.435692 
0.391727 0.394902 0.39811 0.401351 0.404623 0.407925 0.411257 0.414619 0.418009 0.421427 
0.376589 0.379892 0.383229 0.386597 0.389998 0.393429 0.39689 0.40038 0.403898 0.407444 
0.361766 0.365199 0.368664 0.372162 0.375691 0.37925 0.382839 0.386457 0.390102 0.393775 
0.347298 0.35086 0.354454 0.35808 0.361737 0.365424 0.36914 0.372884 0.376655 0.380453 
0.333224 0.336915 0.340638 0.344392 0.348175 0.351988 0.355829 0.359697 0.363591 0.367511 
0.319588 0.323407 0.327256 0.331135 0.335043 0.338979 0.342942 0.346931 0.350944 0.354982 
0.306434 0.310378 0.314351 0.318353 0.322382 0.326437 0.330518 0.334622 0.338751 0.342901 
0.29381 0.297875 0.301969 0.306088 0.310233 0.314402 0.318595 0.32281 0.327047 0.331304 
0.281764 0.285946 0.290154 0.294385 0.29864 0.302916 0.307214 0.311532 0.315869 0.320225 
0.270348 0.27464 0.278954 0.283289 0.287645 0.29202 0.296414 0.300825 0.305254 0.309699 
0.259615 0.264006 0.268417 0.272846 0.277293 0.281756 0.286235 0.290729 0.295238 0.299761 
0.249615 0.254095 0.25859 0.2631 0.267625 0.272164 0.276716 0.28128 0.285856 0.290443 
0.240402 0.244954 0.249519 0.254096 0.258685 0.263284 0.267893 0.272512 0.27714 0.281777 
0.232022 0.23663 0.241248 0.245874 0.250508 0.255151 0.2598 0.264457 0.269121 0.27379 
0.224521 0.229164 0.233814 0.238469 0.24313 0.247796 0.252466 0.257142 0.261822 0.266506 
0.217935 0.22259 0.227249 0.231911 0.236576 0.241244 0.245915 0.250589 0.255265 0.259943 
0.212292 0.216933 0.221576 0.226221 0.230867 0.235514 0.240162 0.244812 0.249463 0.254114 
0.207606 0.212207 0.216808 0.221409 0.226011 0.230613 0.235216 0.239818 0.244421 0.249024 
0.203879 0.208411 0.212944 0.217476 0.222009 0.226541 0.231074 0.235606 0.240138 0.244671 
0.201096 0.205533 0.20997 0.214408 0.218846 0.223285 0.227724 0.232163 0.236603 0.241043 
0.199227 0.203543 0.20786 0.212179 0.216499 0.220821 0.225144 0.229469 0.233794 0.238121 
0.198228 0.202398 0.206572 0.21075 0.214931 0.219114 0.223301 0.227491 0.231683 0.235877 
0.198038 0.202043 0.206055 0.210071 0.214094 0.218121 0.222153 0.226189 0.23023 0.234275 
0.198588 0.202411 0.206244 0.210084 0.213932 0.217787 0.221648 0.225517 0.229391 0.233271 
0.199798 0.203428 0.207069 0.21072 0.214381 0.218051 0.221731 0.225418 0.229114 0.232817 
0.201586 0.205014 0.208455 0.211908 0.215373 0.21885 0.222337 0.225834 0.229342 0.232858 
0.203867 0.207087 0.210323 0.213573 0.216837 0.220113 0.223402 0.226703 0.230016 0.233339 
0.206553 0.209566 0.212595 0.215639 0.218699 0.221772 0.22486 0.227961 0.231074 0.234199 
0.209564 0.21237 0.215193 0.218032 0.220887 0.223758 0.226643 0.229542 0.232455 0.23538 
0.212821 0.215423 0.218043 0.22068 0.223333 0.226002 0.228686 0.231384 0.234097 0.236823 
0.21625 0.218655 0.221076 0.223515 0.225969 0.22844 0.230926 0.233426 0.235941 0.23847 
0.219785 0.221997 0.224227 0.226472 0.228734 0.231011 0.233303 0.23561 0.237931 0.240265 
0.223363 0.225391 0.227435 0.229494 0.231569 0.233658 0.235762 0.23788 0.240012 0.242157 
0.22693 0.22878 0.230646 0.232526 0.234421 0.236329 0.238251 0.240186 0.242134 0.244095 
0.230434 0.232116 0.233811 0.235519 0.23724 0.238974 0.240721 0.242479 0.24425 0.246033 
0.233833 0.235352 0.236884 0.238428 0.239983 0.24155 0.243128 0.244717 0.246317 0.247928 
0.237086 0.238451 0.239827 0.241213 0.24261 0.244016 0.245433 0.246859 0.248295 0.24974 
0.24016 0.241377 0.242604 0.243839 0.245084 0.246337 0.247599 0.248869 0.250148 0.251434 
0.243023 0.244099 0.245183 0.246275 0.247374 0.24848 0.249594 0.250715 0.251842 0.252977 
0.245649 0.246591 0.247538 0.248492 0.249452 0.250417 0.251389 0.252366 0.253349 0.254338 
0.248016 0.248828 0.249645 0.250466 0.251292 0.252123 0.252958 0.253798 0.254643 0.255492 
0.250105 0.250792 0.251482 0.252176 0.252874 0.253575 0.254279 0.254987 0.255698 0.256413 
0.251898 0.252464 0.253033 0.253604 0.254177 0.254753 0.255332 0.255913 0.256496 0.257082 
0.253384 0.253832 0.254282 0.254734 0.255188 0.255643 0.256099 0.256557 0.257017 0.257479 
0.25455 0.254884 0.255218 0.255554 0.255891 0.256228 0.256567 0.256906 0.257247 0.257588 
0.255388 0.25561 0.255831 0.256054 0.256276 0.256499 0.256723 0.256947 0.257171 0.257396 
0.255894 0.256004 0.256114 0.256225 0.256336 0.256446 0.256557 0.256668 0.256779 0.25689 
0.256063 0.256063 0.256063 0.256063 0.256063 0.256063 0.256063 0.256063 0.256063 0.256063 
0.255894 0.255784 0.255674 0.255564 0.255454 0.255344 0.255234 0.255125 0.255015 0.254906 
0.255388 0.255167 0.254947 0.254727 0.254507 0.254288 0.254069 0.25385 0.253632 0.253415 
0.25455 0.254217 0.253885 0.253554 0.253223 0.252894 0.252566 0.252239 0.251912 0.251587 
0.253384 0.252937 0.252492 0.252048 0.251606 0.251166 0.250727 0.250291 0.249855 0.249422 
0.251898 0.251335 0.250774 0.250216 0.24966 0.249107 0.248557 0.248009 0.247464 0.246922 
0.250105 0.249422 0.248742 0.248066 0.247394 0.246726 0.246061 0.2454 0.244743 0.24409 
0.248016 0.247209 0.246407 0.24561 0.244818 0.244031 0.243249 0.242473 0.241701 0.240935 
0.245649 0.244714 0.243785 0.242862 0.241946 0.241037 0.240133 0.239237 0.238347 0.237465 
0.243023 0.241954 0.240893 0.23984 0.238794 0.237757 0.236729 0.235708 0.234696 0.233693 
0.24016 0.238951 0.237752 0.236563 0.235383 0.234213 0.233054 0.231904 0.230764 0.229635 
0.237086 0.235732 0.234389 0.233057 0.231736 0.230427 0.22913 0.227845 0.226572 0.225312 
0.233833 0.232326 0.230831 0.22935 0.227882 0.226427 0.224985 0.223558 0.222145 0.220746 
0.230434 0.228767 0.227114 0.225475 0.223852 0.222243 0.22065 0.219073 0.217512 0.215968 
0.22693 0.225094 0.223275 0.221471 0.219684 0.217914 0.216161 0.214425 0.212708 0.21101 
0.223363 0.221352 0.219358 0.217381 0.215422 0.213481 0.21156 0.209657 0.207775 0.205913 
0.219785 0.21759 0.215413 0.213255 0.211115 0.208995 0.206896 0.204817 0.20276 0.200725 
0.21625 0.213864 0.211497 0.209148 0.20682 0.204512 0.202226 0.199961 0.197719 0.195501 
0.212821 0.210237 0.207672 0.205126 0.2026 0.200096 0.197613 0.195153 0.192717 0.190305 
0.209564 0.206776 0.204007 0.201257 0.198527 0.195819 0.193132 0.190468 0.187827 0.185212 
0.206553 0.203558 0.20058 0.197621 0.194681 0.191761 0.188863 0.185987 0.183134 0.180306 
0.203867 0.200661 0.197472 0.194301 0.191147 0.188013 0.184898 0.181804 0.178733 0.175684 
0.201586 0.198173 0.194773 0.191389 0.188021 0.18467 0.181336 0.178022 0.174728 0.171455 
0.199798 0.19618 0.192574 0.18898 0.1854 0.181835 0.178284 0.17475 0.171233 0.167735 
0.198588 0.194773 0.190967 0.187172 0.183387 0.179614 0.175853 0.172105 0.16837 0.16465 
0.198038 0.194039 0.190047 0.186062 0.182084 0.178115 0.174154 0.170203 0.166262 0.162331 
0.198228 0.194061 0.189899 0.185741 0.181588 0.17744 0.173297 0.16916 0.16503 0.160906 
0.199227 0.194914 0.190602 0.186293 0.181986 0.177682 0.17338 0.169081 0.164785 0.160492 
0.201096 0.19666 0.192224 0.187789 0.183354 0.17892 0.174487 0.170055 0.165624 0.161193 
0.203879 0.199346 0.194814 0.190281 0.185749 0.181216 0.176684 0.172151 0.167619 0.163086 
0.207606 0.203005 0.198406 0.193806 0.189207 0.184609 0.180011 0.175413 0.170817 0.166221 
0.212292 0.207652 0.203014 0.198379 0.193745 0.189113 0.184484 0.179858 0.175234 0.170613 
0.217935 0.213284 0.208637 0.203995 0.199357 0.194724 0.190097 0.185475 0.180859 0.176251 
0.224521 0.219885 0.215256 0.210634 0.20602 0.201415 0.196819 0.192233 0.187658 0.183093 
0.232022 0.227424 0.222837 0.21826 0.213696 0.209144 0.204606 0.200082 0.195573 0.191081 
0.240402 0.235863 0.231338 0.226828 0.222334 0.217857 0.213398 0.208959 0.204539 0.200142 
0.249615 0.245153 0.240709 0.236283 0.231878 0.227493 0.223131 0.218793 0.214479 0.210193 
0.259615 0.255244 0.250894 0.246567 0.242264 0.237985 0.233733 0.229509 0.225315 0.221151 
0.270348 0.26608 0.261837 0.257619 0.253429 0.249267 0.245135 0.241034 0.236967 0.232934 
0.281764 0.277608 0.27348 0.26938 0.26531 0.261272 0.257266 0.253295 0.249361 0.245464 
0.29381 0.289773 0.285765 0.281789 0.277845 0.273935 0.270061 0.266223 0.262424 0.258665 
0.306434 0.302521 0.298639 0.29479 0.290976 0.287197 0.283456 0.279753 0.27609 0.272469 
0.319588 0.315802 0.312048 0.30833 0.304646 0.301 0.297392 0.293824 0.290297 0.286813 
0.333224 0.329567 0.325943 0.322355 0.318804 0.31529 0.311816 0.308381 0.304989 0.30164 
0.347298 0.34377 0.340277 0.33682 0.3334 0.330018 0.326675 0.323373 0.320113 0.316895 
0.361766 0.358368 0.355005 0.351678 0.348388 0.345136 0.341923 0.338751 0.33562 0.332532 
0.376589 0.373319 0.370085 0.366887 0.363725 0.360601 0.357516 0.354471 0.351466 0.348504 
0.391727 0.388585 0.385478 0.382407 0.379371 0.376373 0.373413 0.370492 0.367611 0.364771 
0.407144 0.404129 0.401147 0.3982 0.395289 0.392414 0.389576 0.386776 0.384015 0.381293 
0.422806 0.419915 0.417057 0.414232 0.411442 0.408688 0.405969 0.403287 0.400642 0.398036 
0.43868 0.43591 0.433173 0.430468 0.427797 0.42516 0.422558 0.41999 0.417459 0.414964 
0.454733 0.452083 0.449464 0.446877 0.444322 0.441799 0.43931 0.436854 0.434433 0.432047 
0.470936 0.468404 0.4659 0.463428 0.460986 0.458575 0.456196 0.453849 0.451534 0.449253 
0.48726 0.484842 0.482452 0.480091 0.477759 0.475457 0.473185 0.470944 0.468733 0.466554 
0.503677 0.50137 0.499091 0.496839 0.494614 0.492418 0.49025 0.488111 0.486002 0.483922 
0.520159 0.517962 0.51579 0.513644 0.511524 0.50943 0.507364 0.505325 0.503314 0.50133 
0.536681 0.53459 0.532523 0.53048 0.528462 0.526468 0.524501 0.522558 0.520642 0.518752 
0.553217 0.551229 0.549264 0.547321 0.545402 0.543506 0.541634 0.539786 0.537962 0.536163 
0.569743 0.567855 0.565989 0.564144 0.562321 0.56052 0.55874 0.556984 0.555249 0.553538 
0.586233 0.584443 0.582673 0.580923 0.579194 0.577484 0.575795 0.574127 0.57248 0.570853 
0.602666 0.600971 0.599294 0.597636 0.595997 0.594376 0.592775 0.591193 0.58963 0.588087 
0.619017 0.617414 0.615828 0.614259 0.612708 0.611174 0.609657 0.608158 0.606677 0.605215 
0.635265 0.633751 0.632253 0.63077 0.629304 0.627854 0.626419 0.625001 0.6236 0.622215 
0.651387 0.649959 0.648546 0.647147 0.645763 0.644394 0.64304 0.6417 0.640375 0.639066 
0.667362 0.666018 0.664687 0.663369 0.662065 0.660774 0.659497 0.658233 0.656983 0.655746 
0.683169 0.681905 0.680654 0.679414 0.678187 0.676972 0.675769 0.674579 0.673401 0.672235 
0.698787 0.697601 0.696426 0.695262 0.694109 0.692968 0.691837 0.690718 0.689609 0.688512 
0.714196 0.713085 0.711984 0.710893 0.709812 0.708741 0.70768 0.706629 0.705588 0.704558 
0.729376 0.728337 0.727307 0.726286 0.725275 0.724272 0.723278 0.722293 0.721317 0.720351 
0.744307 0.743338 0.742377 0.741423 0.740478 0.739541 0.738612 0.737691 0.736778 0.735873 
0.758971 0.758069 0.757173 0.756285 0.755404 0.75453 0.753663 0.752804 0.751951 0.751106 
0.773349 0.772511 0.771678 0.770853 0.770033 0.76922 0.768413 0.767613 0.766819 0.766031 
0.787423 0.786646 0.785874 0.785108 0.784348 0.783593 0.782844 0.7821 0.781362 0.78063 
0.801175 0.800456 0.799743 0.799034 0.79833 0.797631 0.796937 0.796248 0.795564 0.794885 
0.814587 0.813925 0.813267 0.812613 0.811963 0.811318 0.810676 0.81004 0.809407 0.808779 
0.827644 0.827035 0.826429 0.825828 0.82523 0.824636 0.824045 0.823458 0.822875 0.822296 
0.840327 0.839769 0.839215 0.838663 0.838114 0.837569 0.837027 0.836488 0.835952 0.835419 
0.852623 0.852113 0.851606 0.851102 0.850601 0.850102 0.849606 0.849112 0.848621 0.848133 
0.864514 0.864051 0.863589 0.86313 0.862673 0.862219 0.861767 0.861317 0.860869 0.860423 
0.875987 0.875567 0.875149 0.874733 0.874318 0.873906 0.873495 0.873086 0.872679 0.872274 
0.887027 0.886648 0.886271 0.885895 0.88552 0.885148 0.884776 0.884407 0.884039 0.883672 
0.89762 0.89728 0.896941 0.896603 0.896266 0.895931 0.895597 0.895265 0.894934 0.894604 
0.907753 0.907449 0.907146 0.906844 0.906543 0.906244 0.905945 0.905647 0.905351 0.905055 
0.917412 0.917142 0.916874 0.916605 0.916338 0.916072 0.915806 0.915542 0.915278 0.915015 
0.926587 0.926349 0.926112 0.925875 0.925639 0.925404 0.92517 0.924936 0.924703 0.92447 
0.935265 0.935057 0.934849 0.934642 0.934436 0.93423 0.934024 0.933819 0.933615 0.933411 
0.943435 0.943255 0.943075 0.942895 0.942716 0.942537 0.942358 0.94218 0.942003 0.941825 
0.951088 0.950933 0.950778 0.950624 0.95047 0.950316 0.950162 0.950009 0.949856 0.949704 
0.958213 0.958082 0.95795 0.957819 0.957688 0.957558 0.957427 0.957297 0.957167 0.957037 
0.964802 0.964692 0.964582 0.964472 0.964362 0.964253 0.964143 0.964034 0.963925 0.963816 
0.970846 0.970755 0.970665 0.970574 0.970484 0.970394 0.970303 0.970213 0.970123 0.970033 
0.976338 0.976265 0.976191 0.976118 0.976045 0.975972 0.975899 0.975827 0.975754 0.975681 
0.98127 0.981213 0.981155 0.981097 0.98104 0.980982 0.980925 0.980867 0.98081 0.980753 
0.985637 0.985593 0.985549 0.985505 0.985461 0.985417 0.985373 0.985329 0.985285 0.985242 
0.989433 0.989401 0.989369 0.989336 0.989304 0.989272 0.98924 0.989207 0.989175 0.989143 
0.992654 0.992631 0.992609 0.992586 0.992564 0.992542 0.992519 0.992497 0.992475 0.992452 
0.995294 0.995279 0.995265 0.995251 0.995237 0.995222 0.995208 0.995194 0.995179 0.995165 
0.997351 0.997343 0.997335 0.997327 0.997319 0.997311 0.997303 0.997295 0.997286 0.997278 
0.998822 0.998818 0.998815 0.998811 0.998808 0.998804 0.998801 0.998797 0.998793 0.99879 
0.999705 0.999705 0.999704 0.999703 0.999702 0.999701 0.9997 0.999699 0.999698 0.999697 
1 1 1 1 1 1 1 1 1 1 
