# vtk DataFile Version 2.0
Airfoil Example
ASCII
DATASET STRUCTURED_GRID
DIMENSIONS 201 1 1
POINTS 201 double64
1 0 0
0.999771 0.000123337 0
0.999082 0.000493033 0
0.997936 0.00110814 0
0.996333 0.0019671 0
0.994274 0.00306771 0
0.991761 0.00440717 0
0.988797 0.00598207 0
0.985384 0.0077884 0
0.981525 0.00982157 0
0.977224 0.0120764 0
0.972484 0.0145473 0
0.96731 0.0172278 0
0.961706 0.0201113 0
0.955678 0.0231905 0
0.949231 0.0264577 0
0.94237 0.0299047 0
0.935102 0.0335229 0
0.927433 0.0373033 0
0.919371 0.0412364 0
0.910922 0.0453127 0
0.902094 0.049522 0
0.892895 0.0538541 0
0.883334 0.0582984 0
0.873419 0.0628441 0
0.863159 0.0674802 0
0.852563 0.0721957 0
0.841642 0.0769793 0
0.830404 0.0818196 0
0.81886 0.0867053 0
0.807021 0.091625 0
0.794898 0.0965674 0
0.782501 0.101521 0
0.769842 0.106475 0
0.756933 0.111417 0
0.743785 0.116338 0
0.73041 0.121225 0
0.716822 0.126069 0
0.703032 0.13086 0
0.689052 0.135586 0
0.674897 0.140239 0
0.660579 0.144808 0
0.646112 0.149285 0
0.631508 0.153661 0
0.616782 0.157928 0
0.601947 0.162077 0
0.587018 0.166102 0
0.572007 0.169995 0
0.55693 0.173749 0
0.5418 0.177359 0
0.526632 0.180819 0
0.51144 0.184124 0
0.496239 0.187269 0
0.481042 0.19025 0
0.465865 0.193065 0
0.450722 0.195709 0
0.435627 0.198181 0
0.420594 0.200479 0
0.405639 0.202601 0
0.390775 0.204547 0
0.376017 0.206316 0
0.361379 0.207908 0
0.346876 0.209325 0
0.332521 0.210568 0
0.318328 0.211637 0
0.304311 0.212537 0
0.290485 0.213269 0
0.276862 0.213836 0
0.263455 0.214242 0
0.250279 0.21449 0
0.237346 0.214586 0
0.224669 0.214533 0
0.21226 0.214337 0
0.200133 0.214003 0
0.188298 0.213537 0
0.176769 0.212943 0
0.165556 0.212229 0
0.15467 0.211399 0
0.144124 0.210462 0
0.133927 0.209422 0
0.124091 0.208287 0
0.114624 0.207064 0
0.105538 0.205758 0
0.0968403 0.204377 0
0.0885411 0.202927 0
0.0806489 0.201416 0
0.0731719 0.199848 0
0.0661179 0.198232 0
0.0594945 0.196573 0
0.0533088 0.194878 0
0.0475672 0.193152 0
0.0422762 0.191401 0
0.0374415 0.189632 0
0.0330683 0.187849 0
0.0291617 0.186057 0
0.0257261 0.184262 0
0.0227654 0.182468 0
0.0202831 0.180679 0
0.0182824 0.178899 0
0.0167656 0.177131 0
0.0157351 0.17538 0
0.0151922 0.173648 0
0.0151383 0.171938 0
0.0155737 0.170251 0
0.0164988 0.16859 0
0.0179131 0.166956 0
0.0198158 0.165351 0
0.0222054 0.163774 0
0.0250802 0.162228 0
0.0284378 0.160711 0
0.0322754 0.159224 0
0.0365896 0.157766 0
0.0413766 0.156336 0
0.046632 0.154933 0
0.0523512 0.153556 0
0.0585287 0.152203 0
0.0651589 0.150872 0
0.0722355 0.14956 0
0.0797518 0.148266 0
0.0877007 0.146987 0
0.0960745 0.14572 0
0.104865 0.144462 0
0.114064 0.14321 0
0.123663 0.141961 0
0.133652 0.140712 0
0.144021 0.139459 0
0.15476 0.138198 0
0.165859 0.136927 0
0.177307 0.135642 0
0.189092 0.13434 0
0.201202 0.133017 0
0.213627 0.13167 0
0.226352 0.130296 0
0.239366 0.128892 0
0.252656 0.127454 0
0.266207 0.125981 0
0.280008 0.124469 0
0.294042 0.122915 0
0.308298 0.121319 0
0.32276 0.119677 0
0.337413 0.117987 0
0.352243 0.116249 0
0.367234 0.114461 0
0.382372 0.112622 0
0.397641 0.11073 0
0.413026 0.108786 0
0.42851 0.10679 0
0.444078 0.10474 0
0.459715 0.102638 0
0.475403 0.100485 0
0.491128 0.0982804 0
0.506872 0.0960264 0
0.522621 0.0937241 0
0.538357 0.0913756 0
0.554064 0.0889827 0
0.569727 0.0865478 0
0.585328 0.0840735 0
0.600853 0.0815626 0
0.616285 0.0790183 0
0.631608 0.0764439 0
0.646806 0.0738429 0
0.661864 0.071219 0
0.676766 0.0685764 0
0.691496 0.0659191 0
0.70604 0.0632514 0
0.720382 0.0605778 0
0.734507 0.0579029 0
0.748401 0.0552316 0
0.762049 0.0525685 0
0.775437 0.0499186 0
0.788551 0.0472871 0
0.801378 0.0446788 0
0.813903 0.0420989 0
0.826115 0.0395526 0
0.838 0.0370449 0
0.849546 0.034581 0
0.860741 0.0321659 0
0.871573 0.0298046 0
0.882031 0.0275022 0
0.892104 0.0252635 0
0.901782 0.0230932 0
0.911054 0.0209961 0
0.91991 0.0189768 0
0.928342 0.0170395 0
0.93634 0.0151885 0
0.943896 0.013428 0
0.951003 0.0117619 0
0.957652 0.0101937 0
0.963838 0.00872708 0
0.969552 0.00736527 0
0.97479 0.00611132 0
0.979546 0.00496807 0
0.983815 0.00393808 0
0.987592 0.0030237 0
0.990874 0.00222698 0
0.993656 0.00154975 0
0.995937 0.000993539 0
0.997713 0.00055961 0
0.998983 0.000248952 0
0.999746 6.22734e-05 0
1 -1.92941e-33 0
POINT_DATA 201
SCALARS PHASESHIFT_SENS double64 1
LOOKUP_TABLE default
0
6.75038e-06
2.68306e-05
5.97297e-05
0.000104603
0.00016028
0.000225283
0.000297839
0.000375912
0.000457226
0.000539312
0.000619553
0.000695256
0.000763743
0.000822483
0.000869291
0.000902635
0.000922119
0.000929273
0.000928786
0.000930205
0.000949503
0.00100848
0.00112957
0.00132828
0.00161038
0.00197532
0.00242067
0.0029443
0.00354491
0.00422185
0.00497487
0.00580381
0.00670849
0.00768851
0.00874318
0.00987149
0.011072
0.0123429
0.0136819
0.0150862
0.0165525
0.0180773
0.0196563
0.0212849
0.0229581
0.0246703
0.0264156
0.0281877
0.0299798
0.0317851
0.0335961
0.0354051
0.0372045
0.0389859
0.0407414
0.0424624
0.0441405
0.0457672
0.0473341
0.0488328
0.0502548
0.051592
0.0528364
0.0539803
0.0550161
0.0559366
0.0567351
0.0574052
0.0579408
0.0583366
0.0585875
0.0586891
0.0586377
0.0584299
0.0580632
0.0575356
0.0568459
0.0559934
0.0549782
0.0538012
0.0524637
0.0509681
0.0493171
0.0475144
0.0455642
0.0434714
0.0412415
0.0388808
0.0363958
0.0337941
0.0310833
0.0282718
0.0253684
0.0223822
0.0193229
0.0162003
0.0130246
0.00980603
0.0065553
0.00328303
1.47323e-09
0.00328301
0.00655525
0.00980603
0.0130248
0.0162012
0.0193251
0.0223865
0.0253761
0.0282845
0.0311029
0.0338231
0.0364372
0.0389378
0.0413181
0.0435719
0.0456935
0.0476779
0.0495207
0.0512181
0.052767
0.0541649
0.0554101
0.0565014
0.0574383
0.0582211
0.0588504
0.0593278
0.0596552
0.0598352
0.059871
0.0597662
0.0595251
0.0591522
0.0586527
0.058032
0.0572959
0.0564507
0.0555028
0.0544588
0.0533257
0.0521106
0.0508206
0.0494631
0.0480453
0.0465746
0.0450582
0.0435036
0.0419177
0.0403075
0.03868
0.0370417
0.0353991
0.0337583
0.0321252
0.0305053
0.028904
0.0273262
0.0257764
0.024259
0.0227777
0.0213361
0.0199374
0.0185841
0.0172788
0.0160234
0.0148195
0.0136685
0.0125712
0.0115282
0.0105399
0.00960612
0.00872661
0.00790076
0.00712772
0.00640642
0.00573557
0.00511369
0.00453916
0.0040102
0.00352492
0.00308133
0.00267739
0.00231101
0.00198005
0.00168242
0.001416
0.00117875
0.000968691
0.000783912
0.000622613
0.000483113
0.000363864
0.000263464
0.000180674
0.000114427
6.38359e-05
2.82029e-05
7.02536e-06
6.08565e-35
