# vtk DataFile Version 2.0
Airfoil Example
ASCII
DATASET UNSTRUCTURED_GRID
POINTS 2010 double64
1 -9.64705e-34 0
1 -8.57516e-34 0
1 -7.50326e-34 0
1 -6.43137e-34 0
1 -5.35947e-34 0
1 -4.28758e-34 0
1 -3.21568e-34 0
1 -2.14379e-34 0
1 -1.07189e-34 0
1 0 0
0.999758 9.28052e-05 0
0.99976 9.61977e-05 0
0.999761 9.95901e-05 0
0.999762 0.000102983 0
0.999764 0.000106375 0
0.999765 0.000109767 0
0.999766 0.00011316 0
0.999768 0.000116552 0
0.999769 0.000119945 0
0.999771 0.000123337 0
0.999033 0.000370993 0
0.999038 0.000384553 0
0.999044 0.000398113 0
0.999049 0.000411673 0
0.999055 0.000425233 0
0.99906 0.000438793 0
0.999066 0.000452353 0
0.999071 0.000465913 0
0.999077 0.000479473 0
0.999082 0.000493033 0
0.997825 0.000833877 0
0.997837 0.000864351 0
0.997849 0.000894826 0
0.997862 0.0009253 0
0.997874 0.000955774 0
0.997887 0.000986248 0
0.997899 0.00101672 0
0.997911 0.0010472 0
0.997924 0.00107767 0
0.997936 0.00110814 0
0.996135 0.00148032 0
0.996157 0.00153441 0
0.996179 0.00158849 0
0.996201 0.00164258 0
0.996223 0.00169667 0
0.996245 0.00175075 0
0.996267 0.00180484 0
0.996289 0.00185893 0
0.996311 0.00191302 0
0.996333 0.0019671 0
0.993965 0.00230873 0
0.993999 0.00239306 0
0.994034 0.0024774 0
0.994068 0.00256173 0
0.994102 0.00264606 0
0.994137 0.00273039 0
0.994171 0.00281472 0
0.994205 0.00289905 0
0.99424 0.00298338 0
0.994274 0.00306771 0
0.991317 0.00331708 0
0.991367 0.0034382 0
0.991416 0.00355932 0
0.991465 0.00368044 0
0.991515 0.00380157 0
0.991564 0.00392269 0
0.991613 0.00404381 0
0.991663 0.00416493 0
0.991712 0.00428605 0
0.991761 0.00440717 0
0.988195 0.00450288 0
0.988261 0.00466724 0
0.988328 0.00483159 0
0.988395 0.00499595 0
0.988462 0.0051603 0
0.988529 0.00532466 0
0.988596 0.00548901 0
0.988663 0.00565336 0
0.98873 0.00581772 0
0.988797 0.00598207 0
0.984599 0.00586324 0
0.984687 0.00607715 0
0.984774 0.00629105 0
0.984861 0.00650496 0
0.984948 0.00671887 0
0.985035 0.00693277 0
0.985122 0.00714668 0
0.98521 0.00736059 0
0.985297 0.00757449 0
0.985384 0.0077884 0
0.980536 0.00739482 0
0.980646 0.00766446 0
0.980756 0.0079341 0
0.980865 0.00820374 0
0.980975 0.00847338 0
0.981085 0.00874302 0
0.981195 0.00901265 0
0.981305 0.00928229 0
0.981415 0.00955193 0
0.981525 0.00982157 0
0.976007 0.00909387 0
0.976142 0.00942527 0
0.976277 0.00975666 0
0.976413 0.0100881 0
0.976548 0.0104195 0
0.976683 0.0107508 0
0.976818 0.0110822 0
0.976953 0.0114136 0
0.977089 0.011745 0
0.977224 0.0120764 0
0.971018 0.0109563 0
0.971181 0.0113553 0
0.971344 0.0117543 0
0.971507 0.0121533 0
0.97167 0.0125523 0
0.971833 0.0129513 0
0.971995 0.0133503 0
0.972158 0.0137493 0
0.972321 0.0141483 0
0.972484 0.0145473 0
0.965574 0.0129774 0
0.965767 0.0134497 0
0.96596 0.013922 0
0.966153 0.0143942 0
0.966345 0.0148665 0
0.966538 0.0153388 0
0.966731 0.015811 0
0.966924 0.0162833 0
0.967117 0.0167555 0
0.96731 0.0172278 0
0.959679 0.0151525 0
0.959905 0.0157035 0
0.96013 0.0162545 0
0.960355 0.0168055 0
0.96058 0.0173564 0
0.960805 0.0179074 0
0.961031 0.0184584 0
0.961256 0.0190094 0
0.961481 0.0195603 0
0.961706 0.0201113 0
0.953341 0.0174762 0
0.9536 0.0181111 0
0.95386 0.0187461 0
0.95412 0.019381 0
0.954379 0.0200159 0
0.954639 0.0206508 0
0.954899 0.0212858 0
0.955159 0.0219207 0
0.955418 0.0225556 0
0.955678 0.0231905 0
0.946564 0.0199429 0
0.94686 0.0206668 0
0.947156 0.0213906 0
0.947453 0.0221145 0
0.947749 0.0228384 0
0.948045 0.0235622 0
0.948342 0.0242861 0
0.948638 0.02501 0
0.948934 0.0257339 0
0.949231 0.0264577 0
0.939355 0.0225466 0
0.93969 0.0233642 0
0.940025 0.0241818 0
0.94036 0.0249993 0
0.940695 0.0258169 0
0.94103 0.0266345 0
0.941365 0.027452 0
0.9417 0.0282696 0
0.942035 0.0290872 0
0.94237 0.0299047 0
0.931722 0.0252812 0
0.932097 0.0261969 0
0.932473 0.0271127 0
0.932848 0.0280284 0
0.933224 0.0289442 0
0.9336 0.0298599 0
0.933975 0.0307757 0
0.934351 0.0316914 0
0.934726 0.0326072 0
0.935102 0.0335229 0
0.923672 0.02814 0
0.92409 0.0291581 0
0.924508 0.0301763 0
0.924925 0.0311944 0
0.925343 0.0322126 0
0.925761 0.0332307 0
0.926179 0.0342488 0
0.926597 0.035267 0
0.927015 0.0362851 0
0.927433 0.0373033 0
0.915212 0.0311163 0
0.915674 0.0322407 0
0.916136 0.0333652 0
0.916598 0.0344897 0
0.91706 0.0356141 0
0.917523 0.0367386 0
0.917985 0.037863 0
0.918447 0.0389875 0
0.918909 0.040112 0
0.919371 0.0412364 0
0.906352 0.034203 0
0.90686 0.0354374 0
0.907367 0.0366718 0
0.907875 0.0379062 0
0.908383 0.0391406 0
0.908891 0.040375 0
0.909399 0.0416094 0
0.909906 0.0428439 0
0.910414 0.0440783 0
0.910922 0.0453127 0
0.897099 0.0373927 0
0.897654 0.0387404 0
0.898209 0.0400881 0
0.898764 0.0414358 0
0.899319 0.0427835 0
0.899874 0.0441312 0
0.900429 0.0454789 0
0.900984 0.0468266 0
0.901539 0.0481743 0
0.902094 0.049522 0
0.887463 0.0406782 0
0.888067 0.0421421 0
0.888671 0.0436061 0
0.889274 0.0450701 0
0.889878 0.0465341 0
0.890481 0.0479981 0
0.891085 0.0494621 0
0.891688 0.0509261 0
0.892292 0.0523901 0
0.892895 0.0538541 0
0.877454 0.0440515 0
0.878107 0.0456345 0
0.878761 0.0472175 0
0.879414 0.0488005 0
0.880067 0.0503834 0
0.880721 0.0519664 0
0.881374 0.0535494 0
0.882027 0.0551324 0
0.882681 0.0567154 0
0.883334 0.0582984 0
0.86708 0.047505 0
0.867784 0.0492093 0
0.868489 0.0509137 0
0.869193 0.052618 0
0.869897 0.0543224 0
0.870602 0.0560267 0
0.871306 0.057731 0
0.87201 0.0594354 0
0.872715 0.0611397 0
0.873419 0.0628441 0
0.856353 0.0510306 0
0.857109 0.0528583 0
0.857865 0.0546861 0
0.858621 0.0565138 0
0.859378 0.0583415 0
0.860134 0.0601693 0
0.86089 0.061997 0
0.861646 0.0638247 0
0.862403 0.0656525 0
0.863159 0.0674802 0
0.845282 0.0546203 0
0.846091 0.0565731 0
0.8469 0.0585259 0
0.847709 0.0604788 0
0.848518 0.0624316 0
0.849327 0.0643844 0
0.850136 0.0663372 0
0.850945 0.06829 0
0.851754 0.0702429 0
0.852563 0.0721957 0
0.833878 0.0582659 0
0.834741 0.0603452 0
0.835603 0.0624244 0
0.836466 0.0645037 0
0.837329 0.066583 0
0.838191 0.0686622 0
0.839054 0.0707415 0
0.839916 0.0728207 0
0.840779 0.0749 0
0.841642 0.0769793 0
0.822154 0.0619593 0
0.82307 0.064166 0
0.823987 0.0663727 0
0.824904 0.0685794 0
0.82582 0.0707861 0
0.826737 0.0729928 0
0.827654 0.0751995 0
0.82857 0.0774062 0
0.829487 0.0796129 0
0.830404 0.0818196 0
0.810119 0.065692 0
0.81109 0.0680269 0
0.812061 0.0703617 0
0.813033 0.0726965 0
0.814004 0.0750313 0
0.814975 0.0773661 0
0.815946 0.0797009 0
0.816918 0.0820357 0
0.817889 0.0843705 0
0.81886 0.0867053 0
0.797786 0.069456 0
0.798812 0.0719193 0
0.799838 0.0743825 0
0.800864 0.0768457 0
0.801891 0.0793089 0
0.802917 0.0817721 0
0.803943 0.0842354 0
0.804969 0.0866986 0
0.805995 0.0891618 0
0.807021 0.091625 0
0.785167 0.073243 0
0.786248 0.0758346 0
0.78733 0.0784262 0
0.788411 0.0810178 0
0.789492 0.0836094 0
0.790573 0.086201 0
0.791654 0.0887926 0
0.792736 0.0913842 0
0.793817 0.0939758 0
0.794898 0.0965674 0
0.772275 0.0770447 0
0.773411 0.0797643 0
0.774547 0.0824839 0
0.775684 0.0852035 0
0.77682 0.0879231 0
0.777956 0.0906426 0
0.779092 0.0933622 0
0.780229 0.0960818 0
0.781365 0.0988014 0
0.782501 0.101521 0
0.759121 0.0808531 0
0.760313 0.0836999 0
0.761504 0.0865468 0
0.762695 0.0893936 0
0.763886 0.0922404 0
0.765077 0.0950873 0
0.766269 0.0979341 0
0.76746 0.100781 0
0.768651 0.103628 0
0.769842 0.106475 0
0.74572 0.0846601 0
0.746966 0.0876331 0
0.748212 0.0906061 0
0.749457 0.0935791 0
0.750703 0.0965521 0
0.751949 0.0995251 0
0.753195 0.102498 0
0.754441 0.105471 0
0.755687 0.108444 0
0.756933 0.111417 0
0.732083 0.0884577 0
0.733383 0.0915555 0
0.734684 0.0946533 0
0.735984 0.097751 0
0.737284 0.100849 0
0.738584 0.103947 0
0.739884 0.107044 0
0.741185 0.110142 0
0.742485 0.11324 0
0.743785 0.116338 0
0.718225 0.0922383 0
0.719579 0.0954591 0
0.720933 0.0986799 0
0.722287 0.101901 0
0.723641 0.105121 0
0.724995 0.108342 0
0.726349 0.111563 0
0.727703 0.114784 0
0.729057 0.118004 0
0.73041 0.121225 0
0.704159 0.0959942 0
0.705566 0.0993359 0
0.706973 0.102678 0
0.70838 0.106019 0
0.709787 0.109361 0
0.711194 0.112703 0
0.712601 0.116044 0
0.714008 0.119386 0
0.715415 0.122728 0
0.716822 0.126069 0
0.689899 0.099718 0
0.691358 0.103178 0
0.692817 0.106638 0
0.694276 0.110099 0
0.695736 0.113559 0
0.697195 0.117019 0
0.698654 0.120479 0
0.700113 0.123939 0
0.701572 0.127399 0
0.703032 0.13086 0
0.675458 0.103402 0
0.676969 0.106978 0
0.678479 0.110554 0
0.67999 0.11413 0
0.6815 0.117706 0
0.683011 0.121282 0
0.684521 0.124858 0
0.686031 0.128434 0
0.687542 0.13201 0
0.689052 0.135586 0
0.660852 0.107041 0
0.662412 0.110729 0
0.663973 0.114418 0
0.665534 0.118107 0
0.667094 0.121795 0
0.668655 0.125484 0
0.670215 0.129173 0
0.671776 0.132861 0
0.673337 0.13655 0
0.674897 0.140239 0
0.646094 0.110626 0
0.647703 0.114424 0
0.649313 0.118222 0
0.650922 0.12202 0
0.652532 0.125818 0
0.654141 0.129616 0
0.655751 0.133414 0
0.65736 0.137212 0
0.65897 0.14101 0
0.660579 0.144808 0
0.631198 0.114152 0
0.632855 0.118055 0
0.634512 0.121959 0
0.636169 0.125863 0
0.637826 0.129767 0
0.639484 0.13367 0
0.641141 0.137574 0
0.642798 0.141478 0
0.644455 0.145381 0
0.646112 0.149285 0
0.616181 0.117612 0
0.617884 0.121617 0
0.619587 0.125623 0
0.62129 0.129628 0
0.622993 0.133634 0
0.624696 0.137639 0
0.626399 0.141645 0
0.628102 0.14565 0
0.629805 0.149656 0
0.631508 0.153661 0
0.601055 0.121001 0
0.602803 0.125104 0
0.60455 0.129207 0
0.606297 0.13331 0
0.608045 0.137413 0
0.609792 0.141516 0
0.61154 0.145619 0
0.613287 0.149722 0
0.615035 0.153825 0
0.616782 0.157928 0
0.585837 0.124313 0
0.587627 0.128509 0
0.589417 0.132705 0
0.591207 0.136901 0
0.592997 0.141097 0
0.594787 0.145293 0
0.596577 0.149489 0
0.598367 0.153685 0
0.600157 0.157881 0
0.601947 0.162077 0
0.570541 0.127542 0
0.572372 0.131827 0
0.574202 0.136111 0
0.576033 0.140396 0
0.577864 0.14468 0
0.579695 0.148964 0
0.581525 0.153249 0
0.583356 0.157533 0
0.585187 0.161818 0
0.587018 0.166102 0
0.555182 0.130685 0
0.557051 0.135053 0
0.558921 0.139421 0
0.56079 0.143788 0
0.56266 0.148156 0
0.564529 0.152524 0
0.566399 0.156892 0
0.568268 0.161259 0
0.570138 0.165627 0
[...]
POINT_DATA 2010
VECTORS TOVERC_SENS double64
-3.78357e-33 -9.27791e-33 0
-3.36317e-33 -8.24703e-33 0
-2.94278e-33 -7.21615e-33 0
-2.52238e-33 -6.18527e-33 0
-2.10198e-33 -5.1544e-33 0
-1.68159e-33 -4.12352e-33 0
-1.26119e-33 -3.09264e-33 0
-8.40793e-34 -2.06176e-33 0
-4.20397e-34 -1.03088e-33 0
0 0 0
2.44042e-06 1.91948e-06 0
1.62702e-05 3.58273e-05 0
3.00999e-05 6.97351e-05 0
4.39297e-05 0.000103643 0
5.77595e-05 0.000137551 0
7.15892e-05 0.000171459 0
8.5419e-05 0.000205366 0
9.92488e-05 0.000239274 0
0.000113079 0.000273182 0
0.000126908 0.00030709 0
9.761e-06 7.84069e-06 0
6.50447e-05 0.000143326 0
0.000120328 0.000278811 0
0.000175612 0.000414296 0
0.000230896 0.000549782 0
0.000286179 0.000685267 0
0.000341463 0.000820752 0
0.000396747 0.000956237 0
0.000452031 0.00109172 0
0.000507314 0.00122721 0
2.19596e-05 1.82499e-05 0
0.000146215 0.000322545 0
0.000270471 0.00062684 0
0.000394727 0.000931135 0
0.000518983 0.00123543 0
0.000643239 0.00153972 0
0.000767495 0.00184402 0
0.000891751 0.00214831 0
0.00101601 0.00245261 0
0.00114026 0.0027569 0
3.90327e-05 3.39507e-05 0
0.000259603 0.000573561 0
0.000480173 0.00111317 0
0.000700742 0.00165278 0
0.000921312 0.00219239 0
0.00114188 0.002732 0
0.00136245 0.00327161 0
0.00158302 0.00381122 0
0.00180359 0.00435083 0
0.00202416 0.00489045 0
6.0975e-05 5.6054e-05 0
0.000404955 0.000896474 0
0.000748934 0.00173689 0
0.00109291 0.00257731 0
0.00143689 0.00341773 0
0.00178087 0.00425816 0
0.00212485 0.00509858 0
0.00246883 0.005939 0
0.00281281 0.00677942 0
0.00315679 0.00761984 0
8.77793e-05 8.59638e-05 0
0.000581949 0.0012914 0
0.00107612 0.00249683 0
0.00157029 0.00370226 0
0.00206446 0.00490769 0
0.00255863 0.00611312 0
0.0030528 0.00731856 0
0.00354697 0.00852399 0
0.00404114 0.00972942 0
0.00453531 0.0109349 0
0.000119436 0.00012536 0
0.000790192 0.00175844 0
0.00146095 0.00339152 0
0.0021317 0.0050246 0
0.00280246 0.00665768 0
0.00347321 0.00829076 0
0.00414397 0.00992384 0
0.00481473 0.0115569 0
0.00548548 0.01319 0
0.00615624 0.0148231 0
0.000155934 0.000176175 0
0.00102922 0.00229771 0
0.00190251 0.00441924 0
0.00277579 0.00654078 0
0.00364908 0.00866231 0
0.00452236 0.0107838 0
0.00539565 0.0129054 0
0.00626894 0.0150269 0
0.00714222 0.0171485 0
0.00801551 0.01927 0
0.000197259 0.000240573 0
0.0012985 0.00290928 0
0.00239975 0.00557799 0
0.00350099 0.00824669 0
0.00460223 0.0109154 0
0.00570347 0.0135841 0
0.00680472 0.0162528 0
0.00790596 0.0189215 0
0.0090072 0.0215902 0
0.0101084 0.0242589 0
0.000243392 0.000320917 0
0.00159744 0.00359318 0
0.00295148 0.00686544 0
0.00430552 0.0101377 0
0.00565957 0.01341 0
0.00701361 0.0166822 0
0.00836765 0.0199545 0
0.0097217 0.0232268 0
0.0110757 0.026499 0
0.0124298 0.0297713 0
0.000294313 0.000419743 0
0.00192535 0.00434938 0
0.00355639 0.00827902 0
0.00518743 0.0122087 0
0.00681847 0.0161383 0
0.00844951 0.0200679 0
0.0100806 0.0239976 0
0.0117116 0.0279272 0
0.0133426 0.0318568 0
0.0149737 0.0357865 0
0.000349994 0.000539723 0
0.00228152 0.00517776 0
0.00421304 0.0098158 0
0.00614456 0.0144538 0
0.00807609 0.0190919 0
0.0100076 0.0237299 0
0.0119391 0.028368 0
0.0138707 0.033006 0
0.0158022 0.037644 0
0.0177337 0.0422821 0
0.000410407 0.00068363 0
0.00266513 0.0060781 0
0.00491986 0.0114726 0
0.00717458 0.0168671 0
0.00942931 0.0222615 0
0.011684 0.027656 0
0.0139388 0.0330505 0
0.0161935 0.038445 0
0.0184482 0.0438394 0
0.0207029 0.0492339 0
0.000475516 0.000854305 0
0.00307533 0.00705006 0
0.00567515 0.0132458 0
0.00827496 0.0194416 0
0.0108748 0.0256373 0
0.0134746 0.0318331 0
0.0160744 0.0380288 0
0.0186742 0.0442246 0
0.021274 0.0504204 0
0.0238739 0.0566161 0
0.000545278 0.00105461 0
0.00351119 0.00809313 0
0.0064771 0.0151317 0
0.00944301 0.0221702 0
0.0124089 0.0292087 0
0.0153748 0.0362472 0
0.0183407 0.0432857 0
0.0213067 0.0503243 0
0.0242726 0.0573628 0
0.0272385 0.0644013 0
0.000619648 0.0012874 0
0.00397172 0.00920665 0
0.00732379 0.0171259 0
0.0106759 0.0250451 0
0.0140279 0.0329644 0
0.01738 0.0408836 0
0.0207321 0.0488029 0
0.0240842 0.0567221 0
0.0274362 0.0646414 0
0.0307883 0.0725606 0
0.000698569 0.00155548 0
0.00445588 0.0103897 0
0.00821319 0.019224 0
0.0119705 0.0280583 0
0.0157278 0.0368925 0
0.0194851 0.0457268 0
0.0232424 0.0545611 0
0.0269997 0.0633953 0
0.0307571 0.0722296 0
0.0345144 0.0810639 0
0.000781979 0.00186154 0
0.00496256 0.0116413 0
0.00914315 0.0214211 0
0.0133237 0.0312009 0
0.0175043 0.0409807 0
0.0216849 0.0507605 0
0.0258655 0.0605403 0
0.0300461 0.0703201 0
0.0342267 0.0800999 0
0.0384072 0.0898797 0
0.00086981 0.00220815 0
0.00549062 0.0129601 0
0.0101114 0.023712 0
0.0147322 0.0344639 0
0.019353 0.0452159 0
0.0239738 0.0559678 0
0.0285946 0.0667197 0
0.0332154 0.0774717 0
0.0378363 0.0882236 0
0.0424571 0.0989755 0
0.000961983 0.00259772 0
0.00603883 0.0143444 0
0.0111157 0.0260911 0
0.0161925 0.0378378 0
0.0212694 0.0495845 0
0.0263462 0.0613312 0
0.031423 0.0730779 0
0.0364999 0.0848246 0
0.0415767 0.0965713 0
0.0466536 0.108318 0
0.00105841 0.00303241 0
0.00660593 0.0157924 0
0.0121535 0.0285525 0
0.017701 0.0413125 0
0.0232485 0.0540726 0
0.028796 0.0668326 0
0.0343435 0.0795926 0
0.0398911 0.0923527 0
0.0454386 0.105113 0
0.0509861 0.117873 0
0.001159 0.00351416 0
0.00719063 0.017302 0
0.0132223 0.0310899 0
0.0192539 0.0448778 0
0.0252855 0.0586656 0
0.0313171 0.0724535 0
0.0373488 0.0862414 0
0.0433804 0.100029 0
0.049412 0.113817 0
0.0554437 0.127605 0
0.00126363 0.00404462 0
0.00779155 0.0188707 0
0.0143195 0.0336967 0
0.0208474 0.0485228 0
0.0273753 0.0633488 0
0.0339032 0.0781749 0
0.0404312 0.0930009 0
0.0469591 0.107827 0
0.053487 0.122653 0
0.0600149 0.137479 0
0.0013722 0.00462511 0
0.00840732 0.0204956 0
0.0154424 0.036366 0
0.0224775 0.0522365 0
0.0295127 0.068107 0
0.0365478 0.0839774 0
0.0435829 0.0998479 0
0.050618 0.115718 0
0.0576531 0.131589 0
0.0646882 0.147459 0
0.00148458 0.00525661 0
0.00903648 0.0221736 0
0.0165884 0.0390905 0
0.0241403 0.0560075 0
0.0316922 0.0729245 0
0.0392441 0.0898414 0
0.046796 0.106758 0
0.0543479 0.123675 0
0.0618998 0.140592 0
0.0694516 0.157509 0
0.00160063 0.00593971 0
0.00967756 0.0239012 0
0.0177545 0.0418626 0
0.0258314 0.0598241 0
0.0339084 0.0777856 0
0.0419853 0.095747 0
0.0500622 0.113708 0
0.0581391 0.13167 0
0.0662161 0.149631 0
0.074293 0.167593 0
0.00172021 0.00667463 0
0.0103291 0.0256745 0
0.0189379 0.0446744 0
0.0275468 0.0636744 0
0.0361556 0.0826743 0
0.0447645 0.101674 0
0.0533733 0.120674 0
0.0619822 0.139674 0
0.0705911 0.158674 0
0.0791999 0.177674 0
0.00184315 0.00746112 0
0.0109894 0.0274894 0
0.0201357 0.0475178 0
0.029282 0.0675461 0
0.0384283 0.0875744 0
0.0475746 0.107603 0
0.0567209 0.127631 0
0.0658672 0.147659 0
0.0750135 0.167688 0
0.0841598 0.187716 0
0.00196928 0.00829854 0
0.0116571 0.0293413 0
0.021345 0.0503841 0
0.0310328 0.0714269 0
0.0407206 0.0924697 0
0.0504085 0.113512 0
0.0600963 0.134555 0
0.0697841 0.155598 0
0.079472 0.176641 0
0.0891598 0.197684 0
0.00209843 0.00918577 0
0.0123305 0.0312253 0
0.0225626 0.0532648 0
0.0327947 0.0753043 0
0.0430268 0.0973438 0
0.0532589 0.119383 0
0.0634909 0.141423 0
0.073723 0.163462 0
0.0839551 0.185502 0
0.0941872 0.207541 0
0.0022304 0.0101212 0
0.013008 0.033136 0
0.0237856 0.0561509 0
0.0345632 0.0791657 0
0.0453408 0.10218 0
0.0561184 0.125195 0
0.0668961 0.14821 0
0.0776737 0.171225 0
0.0884513 0.19424 0
0.0992289 0.217255 0
0.00236499 0.0111029 0
0.013688 0.035068 0
0.025011 0.0590331 0
0.0363339 0.0829983 0
0.0476569 0.106963 0
0.0589799 0.130929 0
0.0703029 0.154894 0
0.0816259 0.178859 0
0.0929489 0.202824 0
0.104272 0.226789 0
0.002502 0.0121282 0
0.0143688 0.0370153 0
0.0262355 0.0619023 0
0.0381023 0.0867893 0
0.0499691 0.111676 0
0.0618359 0.136563 0
0.0737026 0.16145 0
0.0855694 0.186337 0
0.0974362 0.211225 0
0.109303 0.236112 0
0.0026412 0.0131943 0
0.0150487 0.0389716 0
0.0274563 0.0647489 0
0.0398638 0.0905262 0
0.0522714 0.116303 0
0.0646789 0.142081 0
0.0770865 0.167858 0
0.089494 0.193635 0
0.101902 0.219413 0
0.114309 0.24519 0
0.00278237 0.0142977 0
0.0157262 0.0409305 0
0.0286701 0.0675633 0
0.041614 0.0941962 0
0.0545578 0.120829 0
0.0675017 0.147462 0
0.0804456 0.174095 0
0.0933894 0.200727 0
0.106333 0.22736 0
0.119277 0.253993 0
0.00292526 0.0154345 0
0.0163996 0.0428853 0
0.0298739 0.070336 0
0.0433482 0.0977867 0
0.0568225 0.125237 0
0.0702968 0.152688 0
0.0837712 0.180139 0
0.0972455 0.20759 0
0.11072 0.23504 0
0.124194 0.262491 0
0.00306963 0.0166006 0
0.0170671 0.0448289 0
0.0310646 0.0730571 0
0.0450621 0.101285 0
0.0590596 0.129514 0
0.073057 0.157742 0
0.0870545 0.18597 0
0.101052 0.214199 0
0.115049 0.242427 0
0.129047 0.270655 0
0.00321523 0.0177911 0
0.0177272 0.0467541 0
0.0322392 0.0757171 0
0.0467511 0.10468 0
0.0612631 0.133643 0
0.075775 0.162606 0
0.090287 0.191569 0
0.104799 0.220532 0
0.119311 0.249495 0
0.133823 0.278458 0
0.00336181 0.0190012 0
0.0183782 0.0486537 0
0.0333945 0.0783063 0
0.0484109 0.107959 0
0.0634273 0.137611 0
0.0784437 0.167264 0
0.09346 0.196917 0
0.108476 0.226569 0
0.123493 0.256222 0
0.138509 0.285874 0
0.00350909 0.0202253 0
0.0190184 0.0505202 0
0.0345278 0.0808152 0
0.0500371 0.11111 0
0.0655464 0.141405 0
0.0810558 0.1717 0
0.0965651 0.201995 0
0.112074 0.23229 0
0.127584 0.262585 0
0.143093 0.29288 0
0.00365682 0.0214578 0
0.0196463 0.052346 0
0.0356359 0.0832342 0
0.0516254 0.114122 0
0.0676149 0.145011 0
0.0836045 0.175899 0
0.099594 0.206787 0
0.115584 0.237675 0
0.131573 0.268563 0
0.147563 0.299452 0
0.00380471 0.0226928 0
0.0202603 0.0541236 0
0.0367159 0.0855544 0
0.0531716 0.116985 0
0.0696272 0.148416 0
0.0860828 0.179847 0
0.102538 0.211277 0
0.118994 0.242708 0
0.13545 0.274139 0
0.151905 0.30557 0
0.00395251 0.0239241 0
0.0208588 0.0558453 0
0.0377651 0.0877665 0
0.0546715 0.119688 0
0.0715778 0.151609 0
0.0884841 0.18353 0
0.10539 0.215451 0
0.122297 0.247372 0
0.139203 0.279294 0
0.156109 0.311215 0
0.00409994 0.0251453 0
0.0214403 0.0575036 0
0.0387807 0.0898619 0
0.0561211 0.12222 0
0.0734614 0.154579 0
0.0908018 0.186937 0
0.108142 0.219295 0
0.125483 0.251653 0
0.142823 0.284012 0
0.160163 0.31637 0
0.00424671 0.02635 0
0.0220033 0.0590911 0
0.0397598 0.0918323 0
0.0575164 0.124573 0
0.0752729 0.157315 0
0.0930295 0.190056 0
0.110786 0.222797 0
0.128543 0.255538 0
0.146299 0.288279 0
0.164056 0.32102 0
0.00439258 0.0275314 0
0.0225463 0.0606005 0
0.0406999 0.0936695 0
0.0588536 0.126739 0
0.0770073 0.159808 0
0.095161 0.192877 0
0.113315 0.225946 0
0.131468 0.259015 0
0.149622 0.292084 0
0.167776 0.325153 0
0.00453726 0.0286831 0
0.0230679 0.0620245 0
0.0415985 0.0953659 0
0.060129 0.128707 0
0.0786596 0.162049 0
0.0971902 0.19539 0
0.115721 0.228732 0
0.134251 0.262073 0
0.152782 0.295414 0
0.171313 0.328756 0
0.00468048 0.0297983 0
0.0235667 0.0633564 0
0.0424529 0.0969144 0
0.0613391 0.130472 0
0.0802253 0.164031 0
0.0991115 0.197589 0
0.117998 0.231147 0
0.136884 0.264705 0
0.15577 0.298263 0
0.174656 0.331821 0
0.00482201 0.0308707 0
0.0240414 0.0645895 0
0.0432609 0.0983084 0
0.0624803 0.132027 0
0.0816997 0.165746 0
0.100919 0.199465 0
0.120139 0.233184 0
0.139358 0.266903 0
0.158577 0.300621 0
0.177797 0.33434 0
0.00496157 0.0318936 0
0.0244908 0.0657176 0
0.0440201 0.0995416 0
0.0635494 0.133366 0
0.0830786 0.16719 0
0.102608 0.201013 0
0.122137 0.234837 0
0.141666 0.268661 0
0.161196 0.302485 0
0.180725 0.336309 0
0.00509892 0.0328609 0
0.0249137 0.0667347 0
0.0447284 0.100608 0
0.0645432 0.134482 0
0.0843579 0.168356 0
0.104173 0.20223 0
0.123987 0.236104 0
0.143802 0.269977 0
0.163617 0.303851 0
0.183432 0.337725 0
0.00523383 0.0337666 0
0.0253088 0.0676354 0
0.0453837 0.101504 0
0.0654587 0.135373 0
0.0855337 0.169242 0
0.105609 0.203111 0
0.125684 0.236979 0
0.145759 0.270848 0
0.165833 0.304717 0
0.185908 0.338586 0
0.00536607 0.0346048 0
0.0256751 0.0684146 0
0.0459841 0.102224 0
0.0662932 0.136034 0
0.0866022 0.169844 0
0.106911 0.203654 0
0.12722 0.237464 0
0.147529 0.271274 0
0.167838 0.305083 0
0.188147 0.338893 0
0.00549543 0.0353702 0
0.0260116 0.0690679 0
0.0465278 0.102766 0
0.0670439 0.136463 0
0.0875601 0.170161 0
0.108076 0.203859 0
0.128592 0.237556 0
0.149109 0.271254 0
0.169625 0.304952 0
0.190141 0.33865 0
0.00562171 0.0360577 0
0.0263173 0.0695913 0
0.0470129 0.103125 0
0.0677085 0.136658 0
0.0884041 0.170192 0
0.1091 0.203726 0
0.129795 0.237259 0
0.150491 0.270793 0
0.171186 0.304326 0
0.191882 0.33786 0
0.0057447 0.0366627 0
0.0265913 0.0699814 0
0.047438 0.1033 0
0.0682846 0.136619 0
0.0891313 0.169937 0
0.109978 0.203256 0
0.130825 0.236574 0
0.151671 0.269893 0
0.172518 0.303212 0
0.193364 0.33653 0
0.00586424 0.037181 0
0.0268329 0.0702353 0
0.0478016 0.10329 0
0.0687703 0.136344 0
0.0897389 0.169398 0
0.110708 0.202452 0
0.131676 0.235507 0
0.152645 0.268561 0
0.173614 0.301615 0
0.194582 0.33467 0
0.00598017 0.037609 0
0.0270413 0.070351 0
0.0481024 0.103093 0
0.0691635 0.135835 0
0.0902246 0.168577 0
0.111286 0.201319 0
0.132347 0.234061 0
0.153408 0.266803 0
0.174469 0.299545 0
0.19553 0.332288 0
0.00609233 0.0379434 0
0.0272158 0.070327 0
0.0483392 0.102711 0
0.0694626 0.135094 0
0.0905861 0.167478 0
0.111709 0.199861 0
0.132833 0.232245 0
0.153956 0.264629 0
0.17508 0.297012 0
0.196203 0.329396 0
0.00620061 0.0381818 0
0.0273558 0.0701625 0
0.048511 0.102143 0
0.0696662 0.134124 0
0.0908214 0.166104 0
0.111977 0.198085 0
0.133132 0.230066 0
0.154287 0.262046 0
0.175442 0.294027 0
0.196597 0.326008 0
0.00630488 0.0383222 0
0.0274609 0.0698573 0
0.048617 0.101392 0
0.069773 0.132927 0
0.090929 0.164462 0
0.112085 0.195997 0
0.133241 0.227532 0
0.154397 0.259068 0
0.175553 0.290603 0
0.196709 0.322138 0
0.00640506 0.0383633 0
0.0275307 0.069412 0
0.0486563 0.100461 0
0.0697819 0.131509 0
0.0909075 0.162558 0
0.112033 0.193607 0
0.133159 0.224656 0
0.154284 0.255704 0
0.17541 0.286753 0
0.196536 0.317802 0
0.00650105 0.0383043 0
0.0275647 0.068828 0
0.0486284 0.0993516 0
0.0696921 0.129875 0
0.0907558 0.160399 0
0.111819 0.190923 0
0.132883 0.221446 0
0.153947 0.25197 0
0.17501 0.282494 0
0.196074 0.313017 0
0.00659281 0.0381453 0
0.0275629 0.0681072 0
0.0485329 0.0980691 0
0.0695029 0.128031 0
0.090473 0.157993 0
0.111443 0.187955 0
0.132413 0.217917 0
0.153383 0.247879 0
0.174353 0.277841 0
0.195323 0.307803 0
0.00668029 0.0378868 0
0.0275249 0.0672524 0
0.0483694 0.096618 0
0.069214 0.125984 0
0.0900586 0.155349 0
0.110903 0.184715 0
0.131748 0.21408 0
0.152592 0.243446 0
0.173437 0.272811 0
0.194281 0.302177 0
0.00676347 0.0375302 0
0.0274507 0.066267 0
0.0481379 0.0950038 0
0.0688252 0.123741 0
0.0895124 0.152477 0
0.1102 0.181214 0
0.130887 0.209951 0
0.151574 0.238688 0
0.172261 0.267424 0
0.192949 0.296161 0
0.00684233 0.0370775 0
0.0273403 0.0651551 0
0.0478384 0.0932327 0
0.0683364 0.12131 0
0.0888344 0.149388 0
0.109332 0.177466 0
0.12983 0.205543 0
0.150328 0.233621 0
0.170826 0.261698 0
0.191324 0.289776 0
0.0069169 0.0365314 0
0.0271939 0.0639216 0
0.0474709 0.0913118 0
0.0677479 0.118702 0
0.0880249 0.146092 0
0.108302 0.173482 0
0.128579 0.200873 0
0.148856 0.228263 0
0.169133 0.255653 0
0.18941 0.283043 0
0.00698719 0.035895 0
0.0270115 0.0625717 0
0.0470358 0.0892485 0
0.0670602 0.115925 0
0.0870845 0.142602 0
0.107109 0.169279 0
0.127133 0.195955 0
0.147157 0.222632 0
0.167182 0.249309 0
0.187206 0.275986 0
0.00705325 0.0351724 0
0.0267935 0.0611117 0
0.0465337 0.0870509 0
0.0662739 0.11299 0
0.0860141 0.138929 0
0.105754 0.164869 0
0.125495 0.190808 0
0.145235 0.216747 0
0.164975 0.242686 0
0.184715 0.268626 0
0.00711514 0.0343681 0
0.0265401 0.0595479 0
0.045965 0.0847278 0
0.0653899 0.109908 0
0.0848148 0.135087 0
0.10424 0.160267 0
0.123665 0.185447 0
0.14309 0.210627 0
0.162514 0.235807 0
0.181939 0.260986 0
0.00717294 0.0334873 0
0.0262517 0.0578878 0
0.0453305 0.0822883 0
0.0644093 0.106689 0
0.0834881 0.131089 0
0.102567 0.15549 0
0.121646 0.17989 0
0.140724 0.204291 0
0.159803 0.228691 0
0.178882 0.253092 0
0.00722674 0.0325356 0
0.025929 0.0561388 0
0.0446312 0.079742 0
0.0633334 0.103345 0
0.0820356 0.126948 0
0.100738 0.150552 0
0.11944 0.174155 0
0.138142 0.197758 0
0.156845 0.221361 0
0.175547 0.244964 0
0.00727663 0.0315193 0
0.0255723 0.0543092 0
0.043868 0.0770991 0
0.0621637 0.0998889 0
0.0804593 0.122679 0
0.098755 0.145469 0
0.117051 0.168259 0
0.135346 0.191048 0
0.153642 0.213838 0
0.171938 0.236628 0
0.00732275 0.0304451 0
0.0251824 0.0524075 0
0.0430421 0.0743698 0
0.0609018 0.0963321 0
0.0787615 0.118294 0
0.0966212 0.140257 0
0.114481 0.162219 0
0.132341 0.184181 0
0.1502 0.206144 0
0.16806 0.228106 0
0.00736521 0.0293201 0
0.02476 0.0504425 0
0.0421549 0.0715648 0
0.0595497 0.0926871 0
0.0769445 0.113809 0
0.0943394 0.134932 0
0.111734 0.156054 0
0.129129 0.177176 0
0.146524 0.198299 0
0.163919 0.219421 0
0.00740416 0.0281519 0
0.0243059 0.0484234 0
0.0412077 0.0686949 0
0.0581094 0.0889664 0
0.0750112 0.109238 0
0.0919129 0.129509 0
0.108815 0.149781 0
0.125716 0.170052 0
0.142618 0.190324 0
0.15952 0.210595 0
0.00743974 0.0269483 0
0.0238209 0.0463597 0
0.040202 0.0657711 0
0.0565832 0.0851826 0
0.0729644 0.104594 0
0.0893455 0.124005 0
0.105727 0.143417 0
0.122108 0.162828 0
0.138489 0.18224 0
0.15487 0.201651 0
0.0074721 0.0257174 0
0.0233059 0.044261 0
0.0391397 0.0628046 0
0.0549735 0.0813482 0
0.0708073 0.0998918 0
0.0866411 0.118435 0
0.102475 0.136979 0
0.118309 0.155523 0
0.134143 0.174066 0
0.149976 0.19261 0
0.00750142 0.0244677 0
0.0227619 0.042137 0
0.0380224 0.0598064 0
0.0532829 0.0774757 0
0.0685434 0.0951451 0
0.083804 0.112814 0
0.0990645 0.130484 0
0.114325 0.148153 0
0.129585 0.165823 0
0.144846 0.183492 0
0.00752785 0.0232076 0
0.02219 0.0399975 0
0.0368521 0.0567875 0
0.0515143 0.0735775 0
0.0661764 0.0903674 0
0.0808385 0.107157 0
0.0955007 0.123947 0
0.110163 0.140737 0
0.124825 0.157527 0
0.139487 0.174317 0
0.00755157 0.0219458 0
0.0215912 0.0378524 0
0.0356308 0.053759 0
0.0496704 0.0696655 0
0.06371 0.0855721 0
0.0777496 0.101479 0
0.0917892 0.117385 0
0.105829 0.133292 0
0.119868 0.149198 0
0.133908 0.165105 0
0.00757275 0.020691 0
0.0209666 0.0357112 0
0.0343605 0.0507315 0
0.0477544 0.0657517 0
0.0611483 0.0807719 0
0.0745422 0.0957921 0
0.0879361 0.110812 0
0.10133 0.125833 0
0.114724 0.140853 0
0.128118 0.155873 0
0.00759157 0.0194519 0
0.0203176 0.0335837 0
0.0330436 0.0477156 0
0.0457695 0.0618474 0
0.0584955 0.0759792 0
0.0712215 0.0901111 0
0.0839475 0.104243 0
0.0966735 0.118375 0
0.109399 0.132507 0
0.122125 0.146638 0
0.00760821 0.018237 0
0.0196452 0.0314792 0
0.0316822 0.0447214 0
0.0437191 0.0579637 0
0.0557561 0.0712059 0
0.0677931 0.0844481 0
0.0798301 0.0976903 0
0.091867 0.110933 0
0.103904 0.124175 0
0.115941 0.137417 0
0.00762282 0.0170548 0
0.0189508 0.0294069 0
0.0302787 0.041759 0
0.0416067 0.0541111 0
0.0529346 0.0664631 0
0.0642626 0.0788152 0
0.0755905 0.0911673 0
0.0869185 0.103519 0
0.0982465 0.115871 0
0.109574 0.128224 0
0.00763558 0.0159135 0
0.0182356 0.0273755 0
0.0288357 0.0388376 0
0.0394358 0.0502996 0
0.0500358 0.0617616 0
0.0606359 0.0732237 0
0.071236 0.0846857 0
0.081836 0.0961477 0
0.0924361 0.10761 0
0.103036 0.119072 0
0.00764666 0.0148211 0
0.0175012 0.0253936 0
0.0273556 0.0359662 0
0.0372101 0.0465387 0
0.0470646 0.0571112 0
0.0569191 0.0676838 0
0.0667736 0.0782563 0
0.0766281 0.0888289 0
0.0864826 0.0994014 0
0.0963371 0.109974 0
0.00765621 0.0137852 0
0.0167487 0.0234692 0
0.0258411 0.0331532 0
0.0349336 0.0428372 0
0.044026 0.0525212 0
0.0531185 0.0622052 0
0.0622109 0.0718892 0
0.0713034 0.0815733 0
0.0803958 0.0912573 0
0.0894883 0.100941 0
0.00766438 0.012813 0
0.0159796 0.0216098 0
0.0242948 0.0304065 0
0.03261 0.0392032 0
0.0409252 0.048 0
0.0492404 0.0567967 0
0.0575556 0.0655934 0
0.0658708 0.0743901 0
0.074186 0.0831869 0
0.0825012 0.0919836 0
0.00767131 0.0119115 0
0.0151953 0.0198224 0
0.0227193 0.0277333 0
0.0302434 0.0356442 0
0.0377674 0.0435551 0
0.0452914 0.051466 0
0.0528154 0.0593769 0
0.0603394 0.0672878 0
0.0678634 0.0751987 0
0.0753874 0.0831096 0
0.00767714 0.0110869 0
0.0143974 0.0181135 0
0.0211176 0.0251402 0
0.0278378 0.0321668 0