# vtk DataFile Version 2.0
Airfoil Example
ASCII
DATASET STRUCTURED_GRID
DIMENSIONS 1000 10 1
POINTS 10000 Float64
0 0 0
0 0 0
0 0 0
0 0 0
0 0 0
0 0 0
0 0 0
0 0 0
0 0 0
0 0 0
-9.74405e-06 1.71813e-06 0
-9.71861e-06 1.86241e-06 0
-9.69317e-06 2.0067e-06 0
-9.66773e-06 2.15098e-06 0
-9.64229e-06 2.29526e-06 0
-9.61685e-06 2.43954e-06 0
-9.59141e-06 2.58382e-06 0
-9.56597e-06 2.7281e-06 0
-9.54053e-06 2.87239e-06 0
-9.51509e-06 3.01667e-06 0
-3.89469e-05 6.86727e-06 0
-3.88451e-05 7.44437e-06 0
-3.87433e-05 8.02148e-06 0
-3.86416e-05 8.59858e-06 0
-3.85398e-05 9.17569e-06 0
-3.84381e-05 9.75279e-06 0
-3.83363e-05 1.03299e-05 0
-3.82345e-05 1.0907e-05 0
-3.81328e-05 1.14841e-05 0
-3.8031e-05 1.20612e-05 0
-8.76378e-05 1.54523e-05 0
-8.74088e-05 1.67507e-05 0
-8.71799e-05 1.80491e-05 0
-8.69509e-05 1.93475e-05 0
-8.6722e-05 2.06459e-05 0
-8.6493e-05 2.19443e-05 0
-8.62641e-05 2.32427e-05 0
-8.60351e-05 2.45411e-05 0
-8.58062e-05 2.58395e-05 0
-8.55772e-05 2.7138e-05 0
-0.000155817 2.74728e-05 0
-0.00015541 2.97809e-05 0
-0.000155003 3.2089e-05 0
-0.000154596 3.4397e-05 0
-0.000154189 3.67051e-05 0
-0.000153782 3.90132e-05 0
-0.000153375 4.13213e-05 0
-0.000152968 4.36293e-05 0
-0.000152561 4.59374e-05 0
-0.000152154 4.82455e-05 0
-0.000243455 4.2923e-05 0
-0.000242819 4.6529e-05 0
-0.000242183 5.01349e-05 0
-0.000241547 5.37409e-05 0
-0.000240911 5.73468e-05 0
-0.000240275 6.09528e-05 0
-0.000239639 6.45587e-05 0
-0.000239003 6.81647e-05 0
-0.000238367 7.17707e-05 0
-0.000237732 7.53766e-05 0
-0.00035058 6.18073e-05 0
-0.000349665 6.69991e-05 0
-0.000348749 7.2191e-05 0
-0.000347834 7.73829e-05 0
-0.000346918 8.25747e-05 0
-0.000346002 8.77666e-05 0
-0.000345087 9.29584e-05 0
-0.000344171 9.81503e-05 0
-0.000343256 0.000103342 0
-0.00034234 0.000108534 0
-0.000477136 8.41142e-05 0
-0.00047589 9.11798e-05 0
-0.000474644 9.82453e-05 0
-0.000473397 0.000105311 0
-0.000472151 0.000112376 0
-0.000470905 0.000119442 0
-0.000469659 0.000126508 0
-0.000468413 0.000133573 0
-0.000467167 0.000140639 0
-0.000465921 0.000147704 0
-0.000623179 0.000109853 0
-0.000621552 0.00011908 0
-0.000619924 0.000128307 0
-0.000618297 0.000137533 0
-0.00061667 0.00014676 0
-0.000615042 0.000155987 0
-0.000613415 0.000165214 0
-0.000611788 0.00017444 0
-0.00061016 0.000183667 0
-0.000608533 0.000192894 0
-0.000788652 0.000139012 0
-0.000786593 0.000150687 0
-0.000784533 0.000162363 0
-0.000782474 0.000174038 0
-0.000780414 0.000185713 0
-0.000778355 0.000197388 0
-0.000776296 0.000209063 0
-0.000774236 0.000220738 0
-0.000772177 0.000232413 0
-0.000770118 0.000244088 0
-0.000973584 0.000171595 0
-0.000971042 0.000186006 0
-0.0009685 0.000200416 0
-0.000965958 0.000214826 0
-0.000963415 0.000229237 0
-0.000960873 0.000243647 0
-0.000958332 0.000258057 0
-0.000955789 0.000272467 0
-0.000953247 0.000286878 0
-0.000950705 0.000301288 0
-0.00117797 0.000207601 0
-0.0011749 0.000225033 0
-0.00117182 0.000242465 0
-0.00116875 0.000259896 0
-0.00116567 0.000277328 0
-0.0011626 0.00029476 0
-0.00115952 0.000312192 0
-0.00115645 0.000329624 0
-0.00115337 0.000347056 0
-0.0011503 0.000364488 0
-0.00140176 0.000247016 0
-0.00139811 0.000267756 0
-0.00139445 0.000288495 0
-0.00139079 0.000309234 0
-0.00138713 0.000329974 0
-0.00138347 0.000350713 0
-0.00137981 0.000371452 0
-0.00137615 0.000392192 0
-0.00137249 0.000412931 0
-0.00136883 0.000433671 0
-0.00164498 0.000289845 0
-0.00164069 0.000314177 0
-0.0016364 0.00033851 0
-0.0016321 0.000362842 0
-0.00162781 0.000387174 0
-0.00162352 0.000411507 0
-0.00161922 0.000435839 0
-0.00161493 0.000460171 0
-0.00161064 0.000484504 0
-0.00160634 0.000508836 0
-0.00190763 0.000336085 0
-0.00190265 0.000364295 0
-0.00189768 0.000392505 0
-0.0018927 0.000420715 0
-0.00188772 0.000448925 0
-0.00188274 0.000477136 0
-0.00187776 0.000505346 0
-0.00187278 0.000533556 0
-0.00186781 0.000561766 0
-0.00186283 0.000589976 0
-0.00218968 0.000385728 0
-0.00218397 0.0004181 0
-0.00217826 0.000450473 0
-0.00217254 0.000482845 0
-0.00216683 0.000515217 0
-0.00216111 0.00054759 0
-0.0021554 0.000579962 0
-0.00214969 0.000612335 0
-0.00214397 0.000644707 0
-0.00213826 0.000677079 0
-0.0024911 0.000438767 0
-0.0024846 0.000475585 0
-0.0024781 0.000512403 0
-0.0024716 0.000549222 0
-0.00246511 0.00058604 0
-0.00245861 0.000622858 0
-0.00245211 0.000659676 0
-0.00244561 0.000696495 0
-0.00243911 0.000733313 0
-0.00243261 0.000770131 0
-0.00281192 0.000495204 0
-0.00280459 0.000536751 0
-0.00279725 0.000578298 0
-0.00278992 0.000619845 0
-0.00278258 0.000661393 0
-0.00277525 0.00070294 0
-0.00276791 0.000744487 0
-0.00276058 0.000786034 0
-0.00275324 0.000827581 0
-0.00274591 0.000869128 0
-0.00315211 0.000555031 0
-0.00314389 0.00060159 0
-0.00313567 0.000648148 0
-0.00312745 0.000694706 0
-0.00311923 0.000741265 0
-0.00311101 0.000787823 0
-0.00310279 0.000834382 0
-0.00309457 0.00088094 0
-0.00308635 0.000927498 0
-0.00307812 0.000974057 0
-0.00351165 0.00061824 0
-0.00350249 0.000670091 0
-0.00349333 0.000721943 0
-0.00348417 0.000773794 0
-0.00347502 0.000825645 0
-0.00346586 0.000877496 0
-0.0034567 0.000929347 0
-0.00344755 0.000981199 0
-0.00343839 0.00103305 0
-0.00342923 0.0010849 0
-0.00389052 0.000684828 0
-0.00388038 0.000742253 0
-0.00387023 0.000799678 0
-0.00386009 0.000857102 0
-0.00384995 0.000914527 0
-0.0038398 0.000971952 0
-0.00382966 0.00102938 0
-0.00381952 0.0010868 0
-0.00380938 0.00114423 0
-0.00379923 0.00120165 0
-0.0042887 0.000754786 0
-0.00427753 0.000818064 0
-0.00426635 0.000881342 0
-0.00425517 0.000944621 0
-0.00424399 0.0010079 0
-0.00423281 0.00107118 0
-0.00422163 0.00113446 0
-0.00421045 0.00119773 0
-0.00419927 0.00126101 0
-0.0041881 0.00132429 0
-0.00470623 0.000828115 0
-0.00469397 0.000897526 0
-0.0046817 0.000966937 0
-0.00466944 0.00103635 0
-0.00465717 0.00110576 0
-0.00464491 0.00117517 0
-0.00463264 0.00124458 0
-0.00462038 0.00131399 0
-0.00460812 0.0013834 0
-0.00459585 0.00145281 0
-0.00514301 0.000904797 0
-0.00512961 0.000980619 0
-0.00511621 0.00105644 0
-0.00510281 0.00113226 0
-0.00508941 0.00120808 0
-0.00507601 0.0012839 0
-0.00506261 0.00135973 0
-0.00504921 0.00143555 0
-0.00503581 0.00151137 0
-0.00502241 0.00158719 0
-0.0055991 0.000984838 0
-0.00558452 0.00106735 0
-0.00556993 0.00114986 0
-0.00555535 0.00123237 0
-0.00554076 0.00131488 0
-0.00552618 0.00139738 0
-0.0055116 0.00147989 0
-0.00549701 0.0015624 0
-0.00548243 0.00164491 0
-0.00546784 0.00172742 0
-0.00607442 0.00106822 0
-0.0060586 0.00115769 0
-0.00604278 0.00124716 0
-0.00602696 0.00133664 0
-0.00601114 0.00142611 0
-0.00599532 0.00151558 0
-0.00597951 0.00160506 0
-0.00596369 0.00169453 0
-0.00594787 0.001784 0
-0.00593205 0.00187348 0
-0.00656899 0.00115494 0
-0.00655189 0.00125165 0
-0.00653478 0.00134836 0
-0.00651768 0.00144508 0
-0.00650058 0.00154179 0
-0.00648348 0.0016385 0
-0.00646637 0.00173521 0
-0.00644927 0.00183193 0
-0.00643217 0.00192864 0
-0.00641507 0.00202535 0
-0.00708278 0.00124499 0
-0.00706435 0.00134921 0
-0.00704591 0.00145344 0
-0.00702748 0.00155766 0
-0.00700904 0.00166189 0
-0.00699061 0.00176612 0
-0.00697217 0.00187034 0
-0.00695373 0.00197457 0
-0.0069353 0.00207879 0
-0.00691686 0.00218302 0
-0.00761577 0.00133836 0
-0.00759595 0.00145037 0
-0.00757614 0.00156238 0
-0.00755632 0.00167439 0
-0.0075365 0.00178641 0
-0.00751668 0.00189842 0
-0.00749687 0.00201043 0
-0.00747705 0.00212244 0
-0.00745723 0.00223445 0
-0.00743741 0.00234647 0
-0.00816792 0.00143504 0
-0.00814668 0.00155511 0
-0.00812543 0.00167518 0
-0.00810418 0.00179525 0
-0.00808293 0.00191532 0
-0.00806168 0.00203539 0
-0.00804044 0.00215546 0
-0.00801919 0.00227553 0
-0.00799794 0.0023956 0
-0.00797669 0.00251567 0
-0.00873924 0.00153503 0
-0.00871651 0.00166343 0
-0.00869379 0.00179182 0
-0.00867106 0.00192022 0
-0.00864833 0.00204862 0
-0.0086256 0.00217702 0
-0.00860288 0.00230542 0
-0.00858015 0.00243381 0
-0.00855742 0.00256221 0
-0.00853469 0.00269061 0
-0.0093297 0.00163831 0
-0.00930544 0.00177531 0
-0.00928118 0.0019123 0
-0.00925693 0.0020493 0
-0.00923267 0.00218629 0
-0.00920842 0.00232329 0
-0.00918416 0.00246029 0
-0.00915991 0.00259728 0
-0.00913565 0.00273428 0
-0.00911139 0.00287127 0
-0.00993926 0.00174488 0
-0.00991342 0.00189074 0
-0.00988759 0.0020366 0
-0.00986176 0.00218246 0
-0.00983593 0.00232833 0
-0.00981009 0.00247419 0
-0.00978426 0.00262005 0
-0.00975843 0.00276591 0
-0.0097326 0.00291177 0
-0.00970676 0.00305763 0
-0.0105679 0.00185472 0
-0.0105404 0.00200972 0
-0.010513 0.00216471 0
-0.0104855 0.0023197 0
-0.0104581 0.0024747 0
-0.0104306 0.00262969 0
-0.0104031 0.00278468 0
-0.0103757 0.00293968 0
-0.0103482 0.00309467 0
-0.0103208 0.00324967 0
-0.0112156 0.00196783 0
-0.0111865 0.00213223 0
-0.0111573 0.00229662 0
-0.0111282 0.00246101 0
-0.0110991 0.0026254 0
-0.01107 0.00278979 0
-0.0110408 0.00295418 0
-0.0110117 0.00311857 0
-0.0109826 0.00328296 0
-0.0109534 0.00344736 0
-0.0118823 0.0020842 0
-0.0118515 0.00225825 0
-0.0118206 0.0024323 0
-0.0117898 0.00260636 0
-0.0117589 0.00278041 0
-0.0117281 0.00295446 0
-0.0116972 0.00312851 0
-0.0116664 0.00330257 0
-0.0116355 0.00347662 0
-0.0116047 0.00365067 0
-0.0125681 0.00220381 0
-0.0125355 0.00238779 0
-0.0125029 0.00257176 0
-0.0124702 0.00275574 0
-0.0124376 0.00293972 0
-0.012405 0.00312369 0
-0.0123724 0.00330767 0
-0.0123398 0.00349165 0
-0.0123071 0.00367562 0
-0.0122745 0.0038596 0
-0.0132728 0.00232665 0
-0.0132384 0.00252081 0
-0.0132039 0.00271498 0
-0.0131695 0.00290914 0
-0.0131351 0.0031033 0
-0.0131006 0.00329746 0
-0.0130662 0.00349162 0
-0.0130317 0.00368578 0
-0.0129973 0.00387994 0
-0.0129629 0.0040741 0
-0.0139965 0.00245272 0
-0.0139602 0.00265732 0
-0.0139239 0.00286193 0
-0.0138876 0.00306654 0
-0.0138513 0.00327114 0
-0.013815 0.00347575 0
-0.0137787 0.00368035 0
-0.0137424 0.00388496 0
-0.0137061 0.00408956 0
-0.0136698 0.00429417 0
-0.0147391 0.002582 0
-0.0147009 0.00279731 0
-0.0146627 0.00301261 0
-0.0146244 0.00322792 0
-0.0145862 0.00344323 0
-0.014548 0.00365854 0
[...]
POINT_DATA 10000
SCALARS eta Float64 1
LOOKUP_TABLE default
0 0.111111 0.222222 0.333333 0.444444 0.555556 0.666667 0.777778 0.888889 1
0 0.111111 0.222222 0.333333 0.444444 0.555556 0.666667 0.777778 0.888889 1
0 0.111111 0.222222 0.333333 0.444444 0.555556 0.666667 0.777778 0.888889 1
0 0.111111 0.222222 0.333333 0.444444 0.555556 0.666667 0.777778 0.888889 1
0 0.111111 0.222222 0.333333 0.444444 0.555556 0.666667 0.777778 0.888889 1
0 0.111111 0.222222 0.333333 0.444444 0.555556 0.666667 0.777778 0.888889 1
0 0.111111 0.222222 0.333333 0.444444 0.555556 0.666667 0.777778 0.888889 1
0 0.111111 0.222222 0.333333 0.444444 0.555556 0.666667 0.777778 0.888889 1
0 0.111111 0.222222 0.333333 0.444444 0.555556 0.666667 0.777778 0.888889 1
0 0.111111 0.222222 0.333333 0.444444 0.555556 0.666667 0.777778 0.888889 1
0 0.111111 0.222222 0.333333 0.444444 0.555556 0.666667 0.777778 0.888889 1
0 0.111111 0.222222 0.333333 0.444444 0.555556 0.666667 0.777778 0.888889 1
0 0.111111 0.222222 0.333333 0.444444 0.555556 0.666667 0.777778 0.888889 1
0 0.111111 0.222222 0.333333 0.444444 0.555556 0.666667 0.777778 0.888889 1
0 0.111111 0.222222 0.333333 0.444444 0.555556 0.666667 0.777778 0.888889 1
0 0.111111 0.222222 0.333333 0.444444 0.555556 0.666667 0.777778 0.888889 1
0 0.111111 0.222222 0.333333 0.444444 0.555556 0.666667 0.777778 0.888889 1
0 0.111111 0.222222 0.333333 0.444444 0.555556 0.666667 0.777778 0.888889 1
0 0.111111 0.222222 0.333333 0.444444 0.555556 0.666667 0.777778 0.888889 1
0 0.111111 0.222222 0.333333 0.444444 0.555556 0.666667 0.777778 0.888889 1
0 0.111111 0.222222 0.333333 0.444444 0.555556 0.666667 0.777778 0.888889 1
0 0.111111 0.222222 0.333333 0.444444 0.555556 0.666667 0.777778 0.888889 1
0 0.111111 0.222222 0.333333 0.444444 0.555556 0.666667 0.777778 0.888889 1
0 0.111111 0.222222 0.333333 0.444444 0.555556 0.666667 0.777778 0.888889 1
0 0.111111 0.222222 0.333333 0.444444 0.555556 0.666667 0.777778 0.888889 1
0 0.111111 0.222222 0.333333 0.444444 0.555556 0.666667 0.777778 0.888889 1
0 0.111111 0.222222 0.333333 0.444444 0.555556 0.666667 0.777778 0.888889 1
0 0.111111 0.222222 0.333333 0.444444 0.555556 0.666667 0.777778 0.888889 1
0 0.111111 0.222222 0.333333 0.444444 0.555556 0.666667 0.777778 0.888889 1
0 0.111111 0.222222 0.333333 0.444444 0.555556 0.666667 0.777778 0.888889 1
0 0.111111 0.222222 0.333333 0.444444 0.555556 0.666667 0.777778 0.888889 1
0 0.111111 0.222222 0.333333 0.444444 0.555556 0.666667 0.777778 0.888889 1
0 0.111111 0.222222 0.333333 0.444444 0.555556 0.666667 0.777778 0.888889 1
0 0.111111 0.222222 0.333333 0.444444 0.555556 0.666667 0.777778 0.888889 1
0 0.111111 0.222222 0.333333 0.444444 0.555556 0.666667 0.777778 0.888889 1
0 0.111111 0.222222 0.333333 0.444444 0.555556 0.666667 0.777778 0.888889 1
0 0.111111 0.222222 0.333333 0.444444 0.555556 0.666667 0.777778 0.888889 1
0 0.111111 0.222222 0.333333 0.444444 0.555556 0.666667 0.777778 0.888889 1
0 0.111111 0.222222 0.333333 0.444444 0.555556 0.666667 0.777778 0.888889 1
0 0.111111 0.222222 0.333333 0.444444 0.555556 0.666667 0.777778 0.888889 1
0 0.111111 0.222222 0.333333 0.444444 0.555556 0.666667 0.777778 0.888889 1
0 0.111111 0.222222 0.333333 0.444444 0.555556 0.666667 0.777778 0.888889 1
0 0.111111 0.222222 0.333333 0.444444 0.555556 0.666667 0.777778 0.888889 1
0 0.111111 0.222222 0.333333 0.444444 0.555556 0.666667 0.777778 0.888889 1
0 0.111111 0.222222 0.333333 0.444444 0.555556 0.666667 0.777778 0.888889 1
0 0.111111 0.222222 0.333333 0.444444 0.555556 0.666667 0.777778 0.888889 1
0 0.111111 0.222222 0.333333 0.444444 0.555556 0.666667 0.777778 0.888889 1
0 0.111111 0.222222 0.333333 0.444444 0.555556 0.666667 0.777778 0.888889 1
0 0.111111 0.222222 0.333333 0.444444 0.555556 0.666667 0.777778 0.888889 1
0 0.111111 0.222222 0.333333 0.444444 0.555556 0.666667 0.777778 0.888889 1
0 0.111111 0.222222 0.333333 0.444444 0.555556 0.666667 0.777778 0.888889 1
0 0.111111 0.222222 0.333333 0.444444 0.555556 0.666667 0.777778 0.888889 1
0 0.111111 0.222222 0.333333 0.444444 0.555556 0.666667 0.777778 0.888889 1
0 0.111111 0.222222 0.333333 0.444444 0.555556 0.666667 0.777778 0.888889 1
0 0.111111 0.222222 0.333333 0.444444 0.555556 0.666667 0.777778 0.888889 1
0 0.111111 0.222222 0.333333 0.444444 0.555556 0.666667 0.777778 0.888889 1
0 0.111111 0.222222 0.333333 0.444444 0.555556 0.666667 0.777778 0.888889 1
0 0.111111 0.222222 0.333333 0.444444 0.555556 0.666667 0.777778 0.888889 1
0 0.111111 0.222222 0.333333 0.444444 0.555556 0.666667 0.777778 0.888889 1
0 0.111111 0.222222 0.333333 0.444444 0.555556 0.666667 0.777778 0.888889 1
0 0.111111 0.222222 0.333333 0.444444 0.555556 0.666667 0.777778 0.888889 1
0 0.111111 0.222222 0.333333 0.444444 0.555556 0.666667 0.777778 0.888889 1
0 0.111111 0.222222 0.333333 0.444444 0.555556 0.666667 0.777778 0.888889 1
0 0.111111 0.222222 0.333333 0.444444 0.555556 0.666667 0.777778 0.888889 1
0 0.111111 0.222222 0.333333 0.444444 0.555556 0.666667 0.777778 0.888889 1
0 0.111111 0.222222 0.333333 0.444444 0.555556 0.666667 0.777778 0.888889 1
0 0.111111 0.222222 0.333333 0.444444 0.555556 0.666667 0.777778 0.888889 1
0 0.111111 0.222222 0.333333 0.444444 0.555556 0.666667 0.777778 0.888889 1
0 0.111111 0.222222 0.333333 0.444444 0.555556 0.666667 0.777778 0.888889 1
0 0.111111 0.222222 0.333333 0.444444 0.555556 0.666667 0.777778 0.888889 1
0 0.111111 0.222222 0.333333 0.444444 0.555556 0.666667 0.777778 0.888889 1
0 0.111111 0.222222 0.333333 0.444444 0.555556 0.666667 0.777778 0.888889 1
0 0.111111 0.222222 0.333333 0.444444 0.555556 0.666667 0.777778 0.888889 1
0 0.111111 0.222222 0.333333 0.444444 0.555556 0.666667 0.777778 0.888889 1
0 0.111111 0.222222 0.333333 0.444444 0.555556 0.666667 0.777778 0.888889 1
0 0.111111 0.222222 0.333333 0.444444 0.555556 0.666667 0.777778 0.888889 1
0 0.111111 0.222222 0.333333 0.444444 0.555556 0.666667 0.777778 0.888889 1
0 0.111111 0.222222 0.333333 0.444444 0.555556 0.666667 0.777778 0.888889 1
0 0.111111 0.222222 0.333333 0.444444 0.555556 0.666667 0.777778 0.888889 1
0 0.111111 0.222222 0.333333 0.444444 0.555556 0.666667 0.777778 0.888889 1
0 0.111111 0.222222 0.333333 0.444444 0.555556 0.666667 0.777778 0.888889 1
0 0.111111 0.222222 0.333333 0.444444 0.555556 0.666667 0.777778 0.888889 1
0 0.111111 0.222222 0.333333 0.444444 0.555556 0.666667 0.777778 0.888889 1
0 0.111111 0.222222 0.333333 0.444444 0.555556 0.666667 0.777778 0.888889 1
0 0.111111 0.222222 0.333333 0.444444 0.555556 0.666667 0.777778 0.888889 1
0 0.111111 0.222222 0.333333 0.444444 0.555556 0.666667 0.777778 0.888889 1
0 0.111111 0.222222 0.333333 0.444444 0.555556 0.666667 0.777778 0.888889 1
0 0.111111 0.222222 0.333333 0.444444 0.555556 0.666667 0.777778 0.888889 1
0 0.111111 0.222222 0.333333 0.444444 0.555556 0.666667 0.777778 0.888889 1
0 0.111111 0.222222 0.333333 0.444444 0.555556 0.666667 0.777778 0.888889 1
0 0.111111 0.222222 0.333333 0.444444 0.555556 0.666667 0.777778 0.888889 1
0 0.111111 0.222222 0.333333 0.444444 0.555556 0.666667 0.777778 0.888889 1
0 0.111111 0.222222 0.333333 0.444444 0.555556 0.666667 0.777778 0.888889 1
0 0.111111 0.222222 0.333333 0.444444 0.555556 0.666667 0.777778 0.888889 1
0 0.111111 0.222222 0.333333 0.444444 0.555556 0.666667 0.777778 0.888889 1
0 0.111111 0.222222 0.333333 0.444444 0.555556 0.666667 0.777778 0.888889 1
0 0.111111 0.222222 0.333333 0.444444 0.555556 0.666667 0.777778 0.888889 1
0 0.111111 0.222222 0.333333 0.444444 0.555556 0.666667 0.777778 0.888889 1
0 0.111111 0.222222 0.333333 0.444444 0.555556 0.666667 0.777778 0.888889 1
0 0.111111 0.222222 0.333333 0.444444 0.555556 0.666667 0.777778 0.888889 1
0 0.111111 0.222222 0.333333 0.444444 0.555556 0.666667 0.777778 0.888889 1
0 0.111111 0.222222 0.333333 0.444444 0.555556 0.666667 0.777778 0.888889 1
0 0.111111 0.222222 0.333333 0.444444 0.555556 0.666667 0.777778 0.888889 1
0 0.111111 0.222222 0.333333 0.444444 0.555556 0.666667 0.777778 0.888889 1
0 0.111111 0.222222 0.333333 0.444444 0.555556 0.666667 0.777778 0.888889 1
0 0.111111 0.222222 0.333333 0.444444 0.555556 0.666667 0.777778 0.888889 1
0 0.111111 0.222222 0.333333 0.444444 0.555556 0.666667 0.777778 0.888889 1
0 0.111111 0.222222 0.333333 0.444444 0.555556 0.666667 0.777778 0.888889 1
0 0.111111 0.222222 0.333333 0.444444 0.555556 0.666667 0.777778 0.888889 1
0 0.111111 0.222222 0.333333 0.444444 0.555556 0.666667 0.777778 0.888889 1
0 0.111111 0.222222 0.333333 0.444444 0.555556 0.666667 0.777778 0.888889 1
0 0.111111 0.222222 0.333333 0.444444 0.555556 0.666667 0.777778 0.888889 1
0 0.111111 0.222222 0.333333 0.444444 0.555556 0.666667 0.777778 0.888889 1
0 0.111111 0.222222 0.333333 0.444444 0.555556 0.666667 0.777778 0.888889 1
0 0.111111 0.222222 0.333333 0.444444 0.555556 0.666667 0.777778 0.888889 1
0 0.111111 0.222222 0.333333 0.444444 0.555556 0.666667 0.777778 0.888889 1
0 0.111111 0.222222 0.333333 0.444444 0.555556 0.666667 0.777778 0.888889 1
0 0.111111 0.222222 0.333333 0.444444 0.555556 0.666667 0.777778 0.888889 1
0 0.111111 0.222222 0.333333 0.444444 0.555556 0.666667 0.777778 0.888889 1
0 0.111111 0.222222 0.333333 0.444444 0.555556 0.666667 0.777778 0.888889 1
0 0.111111 0.222222 0.333333 0.444444 0.555556 0.666667 0.777778 0.888889 1
0 0.111111 0.222222 0.333333 0.444444 0.555556 0.666667 0.777778 0.888889 1
0 0.111111 0.222222 0.333333 0.444444 0.555556 0.666667 0.777778 0.888889 1
0 0.111111 0.222222 0.333333 0.444444 0.555556 0.666667 0.777778 0.888889 1
0 0.111111 0.222222 0.333333 0.444444 0.555556 0.666667 0.777778 0.888889 1
0 0.111111 0.222222 0.333333 0.444444 0.555556 0.666667 0.777778 0.888889 1
0 0.111111 0.222222 0.333333 0.444444 0.555556 0.666667 0.777778 0.888889 1
0 0.111111 0.222222 0.333333 0.444444 0.555556 0.666667 0.777778 0.888889 1
0 0.111111 0.222222 0.333333 0.444444 0.555556 0.666667 0.777778 0.888889 1
0 0.111111 0.222222 0.333333 0.444444 0.555556 0.666667 0.777778 0.888889 1
0 0.111111 0.222222 0.333333 0.444444 0.555556 0.666667 0.777778 0.888889 1
0 0.111111 0.222222 0.333333 0.444444 0.555556 0.666667 0.777778 0.888889 1
0 0.111111 0.222222 0.333333 0.444444 0.555556 0.666667 0.777778 0.888889 1
0 0.111111 0.222222 0.333333 0.444444 0.555556 0.666667 0.777778 0.888889 1
0 0.111111 0.222222 0.333333 0.444444 0.555556 0.666667 0.777778 0.888889 1
0 0.111111 0.222222 0.333333 0.444444 0.555556 0.666667 0.777778 0.888889 1
0 0.111111 0.222222 0.333333 0.444444 0.555556 0.666667 0.777778 0.888889 1
0 0.111111 0.222222 0.333333 0.444444 0.555556 0.666667 0.777778 0.888889 1
0 0.111111 0.222222 0.333333 0.444444 0.555556 0.666667 0.777778 0.888889 1
0 0.111111 0.222222 0.333333 0.444444 0.555556 0.666667 0.777778 0.888889 1
0 0.111111 0.222222 0.333333 0.444444 0.555556 0.666667 0.777778 0.888889 1
0 0.111111 0.222222 0.333333 0.444444 0.555556 0.666667 0.777778 0.888889 1
0 0.111111 0.222222 0.333333 0.444444 0.555556 0.666667 0.777778 0.888889 1
0 0.111111 0.222222 0.333333 0.444444 0.555556 0.666667 0.777778 0.888889 1
0 0.111111 0.222222 0.333333 0.444444 0.555556 0.666667 0.777778 0.888889 1
0 0.111111 0.222222 0.333333 0.444444 0.555556 0.666667 0.777778 0.888889 1
0 0.111111 0.222222 0.333333 0.444444 0.555556 0.666667 0.777778 0.888889 1
0 0.111111 0.222222 0.333333 0.444444 0.555556 0.666667 0.777778 0.888889 1
0 0.111111 0.222222 0.333333 0.444444 0.555556 0.666667 0.777778 0.888889 1
0 0.111111 0.222222 0.333333 0.444444 0.555556 0.666667 0.777778 0.888889 1
0 0.111111 0.222222 0.333333 0.444444 0.555556 0.666667 0.777778 0.888889 1
0 0.111111 0.222222 0.333333 0.444444 0.555556 0.666667 0.777778 0.888889 1
0 0.111111 0.222222 0.333333 0.444444 0.555556 0.666667 0.777778 0.888889 1
0 0.111111 0.222222 0.333333 0.444444 0.555556 0.666667 0.777778 0.888889 1
0 0.111111 0.222222 0.333333 0.444444 0.555556 0.666667 0.777778 0.888889 1
0 0.111111 0.222222 0.333333 0.444444 0.555556 0.666667 0.777778 0.888889 1
0 0.111111 0.222222 0.333333 0.444444 0.555556 0.666667 0.777778 0.888889 1
0 0.111111 0.222222 0.333333 0.444444 0.555556 0.666667 0.777778 0.888889 1
0 0.111111 0.222222 0.333333 0.444444 0.555556 0.666667 0.777778 0.888889 1
0 0.111111 0.222222 0.333333 0.444444 0.555556 0.666667 0.777778 0.888889 1
0 0.111111 0.222222 0.333333 0.444444 0.555556 0.666667 0.777778 0.888889 1
0 0.111111 0.222222 0.333333 0.444444 0.555556 0.666667 0.777778 0.888889 1
0 0.111111 0.222222 0.333333 0.444444 0.555556 0.666667 0.777778 0.888889 1
0 0.111111 0.222222 0.333333 0.444444 0.555556 0.666667 0.777778 0.888889 1
0 0.111111 0.222222 0.333333 0.444444 0.555556 0.666667 0.777778 0.888889 1
0 0.111111 0.222222 0.333333 0.444444 0.555556 0.666667 0.777778 0.888889 1
0 0.111111 0.222222 0.333333 0.444444 0.555556 0.666667 0.777778 0.888889 1
0 0.111111 0.222222 0.333333 0.444444 0.555556 0.666667 0.777778 0.888889 1
0 0.111111 0.222222 0.333333 0.444444 0.555556 0.666667 0.777778 0.888889 1
0 0.111111 0.222222 0.333333 0.444444 0.555556 0.666667 0.777778 0.888889 1
0 0.111111 0.222222 0.333333 0.444444 0.555556 0.666667 0.777778 0.888889 1
0 0.111111 0.222222 0.333333 0.444444 0.555556 0.666667 0.777778 0.888889 1
0 0.111111 0.222222 0.333333 0.444444 0.555556 0.666667 0.777778 0.888889 1
0 0.111111 0.222222 0.333333 0.444444 0.555556 0.666667 0.777778 0.888889 1
0 0.111111 0.222222 0.333333 0.444444 0.555556 0.666667 0.777778 0.888889 1
0 0.111111 0.222222 0.333333 0.444444 0.555556 0.666667 0.777778 0.888889 1
0 0.111111 0.222222 0.333333 0.444444 0.555556 0.666667 0.777778 0.888889 1
0 0.111111 0.222222 0.333333 0.444444 0.555556 0.666667 0.777778 0.888889 1
0 0.111111 0.222222 0.333333 0.444444 0.555556 0.666667 0.777778 0.888889 1
0 0.111111 0.222222 0.333333 0.444444 0.555556 0.666667 0.777778 0.888889 1
0 0.111111 0.222222 0.333333 0.444444 0.555556 0.666667 0.777778 0.888889 1
0 0.111111 0.222222 0.333333 0.444444 0.555556 0.666667 0.777778 0.888889 1
0 0.111111 0.222222 0.333333 0.444444 0.555556 0.666667 0.777778 0.888889 1
0 0.111111 0.222222 0.333333 0.444444 0.555556 0.666667 0.777778 0.888889 1
0 0.111111 0.222222 0.333333 0.444444 0.555556 0.666667 0.777778 0.888889 1
0 0.111111 0.222222 0.333333 0.444444 0.555556 0.666667 0.777778 0.888889 1
0 0.111111 0.222222 0.333333 0.444444 0.555556 0.666667 0.777778 0.888889 1
0 0.111111 0.222222 0.333333 0.444444 0.555556 0.666667 0.777778 0.888889 1
0 0.111111 0.222222 0.333333 0.444444 0.555556 0.666667 0.777778 0.888889 1
0 0.111111 0.222222 0.333333 0.444444 0.555556 0.666667 0.777778 0.888889 1
0 0.111111 0.222222 0.333333 0.444444 0.555556 0.666667 0.777778 0.888889 1
0 0.111111 0.222222 0.333333 0.444444 0.555556 0.666667 0.777778 0.888889 1
0 0.111111 0.222222 0.333333 0.444444 0.555556 0.666667 0.777778 0.888889 1
0 0.111111 0.222222 0.333333 0.444444 0.555556 0.666667 0.777778 0.888889 1
0 0.111111 0.222222 0.333333 0.444444 0.555556 0.666667 0.777778 0.888889 1
0 0.111111 0.222222 0.333333 0.444444 0.555556 0.666667 0.777778 0.888889 1
0 0.111111 0.222222 0.333333 0.444444 0.555556 0.666667 0.777778 0.888889 1
0 0.111111 0.222222 0.333333 0.444444 0.555556 0.666667 0.777778 0.888889 1
0 0.111111 0.222222 0.333333 0.444444 0.555556 0.666667 0.777778 0.888889 1
0 0.111111 0.222222 0.333333 0.444444 0.555556 0.666667 0.777778 0.888889 1
0 0.111111 0.222222 0.333333 0.444444 0.555556 0.666667 0.777778 0.888889 1
0 0.111111 0.222222 0.333333 0.444444 0.555556 0.666667 0.777778 0.888889 1
0 0.111111 0.222222 0.333333 0.444444 0.555556 0.666667 0.777778 0.888889 1
0 0.111111 0.222222 0.333333 0.444444 0.555556 0.666667 0.777778 0.888889 1
0 0.111111 0.222222 0.333333 0.444444 0.555556 0.666667 0.777778 0.888889 1
0 0.111111 0.222222 0.333333 0.444444 0.555556 0.666667 0.777778 0.888889 1
0 0.111111 0.222222 0.333333 0.444444 0.555556 0.666667 0.777778 0.888889 1
0 0.111111 0.222222 0.333333 0.444444 0.555556 0.666667 0.777778 0.888889 1
0 0.111111 0.222222 0.333333 0.444444 0.555556 0.666667 0.777778 0.888889 1
0 0.111111 0.222222 0.333333 0.444444 0.555556 0.666667 0.777778 0.888889 1
0 0.111111 0.222222 0.333333 0.444444 0.555556 0.666667 0.777778 0.888889 1
0 0.111111 0.222222 0.333333 0.444444 0.555556 0.666667 0.777778 0.888889 1
0 0.111111 0.222222 0.333333 0.444444 0.555556 0.666667 0.777778 0.888889 1
0 0.111111 0.222222 0.333333 0.444444 0.555556 0.666667 0.777778 0.888889 1
0 0.111111 0.222222 0.333333 0.444444 0.555556 0.666667 0.777778 0.888889 1
0 0.111111 0.222222 0.333333 0.444444 0.555556 0.666667 0.777778 0.888889 1
0 0.111111 0.222222 0.333333 0.444444 0.555556 0.666667 0.777778 0.888889 1
0 0.111111 0.222222 0.333333 0.444444 0.555556 0.666667 0.777778 0.888889 1
0 0.111111 0.222222 0.333333 0.444444 0.555556 0.666667 0.777778 0.888889 1
0 0.111111 0.222222 0.333333 0.444444 0.555556 0.666667 0.777778 0.888889 1
0 0.111111 0.222222 0.333333 0.444444 0.555556 0.666667 0.777778 0.888889 1
0 0.111111 0.222222 0.333333 0.444444 0.555556 0.666667 0.777778 0.888889 1
0 0.111111 0.222222 0.333333 0.444444 0.555556 0.666667 0.777778 0.888889 1
0 0.111111 0.222222 0.333333 0.444444 0.555556 0.666667 0.777778 0.888889 1
0 0.111111 0.222222 0.333333 0.444444 0.555556 0.666667 0.777778 0.888889 1
0 0.111111 0.222222 0.333333 0.444444 0.555556 0.666667 0.777778 0.888889 1
0 0.111111 0.222222 0.333333 0.444444 0.555556 0.666667 0.777778 0.888889 1
0 0.111111 0.222222 0.333333 0.444444 0.555556 0.666667 0.777778 0.888889 1
0 0.111111 0.222222 0.333333 0.444444 0.555556 0.666667 0.777778 0.888889 1
0 0.111111 0.222222 0.333333 0.444444 0.555556 0.666667 0.777778 0.888889 1
0 0.111111 0.222222 0.333333 0.444444 0.555556 0.666667 0.777778 0.888889 1
0 0.111111 0.222222 0.333333 0.444444 0.555556 0.666667 0.777778 0.888889 1
0 0.111111 0.222222 0.333333 0.444444 0.555556 0.666667 0.777778 0.888889 1
0 0.111111 0.222222 0.333333 0.444444 0.555556 0.666667 0.777778 0.888889 1
0 0.111111 0.222222 0.333333 0.444444 0.555556 0.666667 0.777778 0.888889 1
0 0.111111 0.222222 0.333333 0.444444 0.555556 0.666667 0.777778 0.888889 1
0 0.111111 0.222222 0.333333 0.444444 0.555556 0.666667 0.777778 0.888889 1
0 0.111111 0.222222 0.333333 0.444444 0.555556 0.666667 0.777778 0.888889 1
0 0.111111 0.222222 0.333333 0.444444 0.555556 0.666667 0.777778 0.888889 1
0 0.111111 0.222222 0.333333 0.444444 0.555556 0.666667 0.777778 0.888889 1
0 0.111111 0.222222 0.333333 0.444444 0.555556 0.666667 0.777778 0.888889 1
0 0.111111 0.222222 0.333333 0.444444 0.555556 0.666667 0.777778 0.888889 1
0 0.111111 0.222222 0.333333 0.444444 0.555556 0.666667 0.777778 0.888889 1
0 0.111111 0.222222 0.333333 0.444444 0.555556 0.666667 0.777778 0.888889 1
0 0.111111 0.222222 0.333333 0.444444 0.555556 0.666667 0.777778 0.888889 1
0 0.111111 0.222222 0.333333 0.444444 0.555556 0.666667 0.777778 0.888889 1
0 0.111111 0.222222 0.333333 0.444444 0.555556 0.666667 0.777778 0.888889 1
0 0.111111 0.222222 0.333333 0.444444 0.555556 0.666667 0.777778 0.888889 1
0 0.111111 0.222222 0.333333 0.444444 0.555556 0.666667 0.777778 0.888889 1
0 0.111111 0.222222 0.333333 0.444444 0.555556 0.666667 0.777778 0.888889 1
0 0.111111 0.222222 0.333333 0.444444 0.555556 0.666667 0.777778 0.888889 1
0 0.111111 0.222222 0.333333 0.444444 0.555556 0.666667 0.777778 0.888889 1
0 0.111111 0.222222 0.333333 0.444444 0.555556 0.666667 0.777778 0.888889 1
0 0.111111 0.222222 0.333333 0.444444 0.555556 0.666667 0.777778 0.888889 1
0 0.111111 0.222222 0.333333 0.444444 0.555556 0.666667 0.777778 0.888889 1
0 0.111111 0.222222 0.333333 0.444444 0.555556 0.666667 0.777778 0.888889 1
0 0.111111 0.222222 0.333333 0.444444 0.555556 0.666667 0.777778 0.888889 1
0 0.111111 0.222222 0.333333 0.444444 0.555556 0.666667 0.777778 0.888889 1
0 0.111111 0.222222 0.333333 0.444444 0.555556 0.666667 0.777778 0.888889 1
0 0.111111 0.222222 0.333333 0.444444 0.555556 0.666667 0.777778 0.888889 1
0 0.111111 0.222222 0.333333 0.444444 0.555556 0.666667 0.777778 0.888889 1
0 0.111111 0.222222 0.333333 0.444444 0.555556 0.666667 0.777778 0.888889 1