# vtk DataFile Version 2.0
Airfoil Example
ASCII
DATASET STRUCTURED_GRID
DIMENSIONS 201 1 1
POINTS 201 double64
1 0 0
0.99977 0.000118184 0
0.999081 0.000472435 0
0.997933 0.00106185 0
0.996327 0.00188495 0
0.994265 0.00293962 0
0.991748 0.00422322 0
0.988779 0.00573248 0
0.985361 0.00746358 0
0.981496 0.00941217 0
0.977188 0.0115733 0
0.97244 0.0139416 0
0.967258 0.016511 0
0.961646 0.0192752 0
0.955609 0.0222272 0
0.949152 0.0253597 0
0.942281 0.0286648 0
0.935002 0.0321343 0
0.927322 0.0357598 0
0.919248 0.0395322 0
0.910787 0.0434423 0
0.901947 0.0474805 0
0.892736 0.051637 0
0.883162 0.0559018 0
0.873234 0.0602646 0
0.86296 0.0647148 0
0.852351 0.069242 0
0.841416 0.0738354 0
0.830164 0.0784842 0
0.818607 0.0831775 0
0.806754 0.0879045 0
0.794617 0.0926544 0
0.782207 0.0974163 0
0.769534 0.102179 0
0.756612 0.106933 0
0.743451 0.111667 0
0.730063 0.116371 0
0.716462 0.121035 0
0.702659 0.125648 0
0.688668 0.130202 0
0.674501 0.134687 0
0.660171 0.139093 0
0.645692 0.143412 0
0.631078 0.147637 0
0.616342 0.151758 0
0.601497 0.155768 0
0.586559 0.15966 0
0.57154 0.163427 0
0.556454 0.167063 0
0.541317 0.170563 0
0.526142 0.17392 0
0.510944 0.17713 0
0.495736 0.180189 0
0.480535 0.183092 0
0.465353 0.185836 0
0.450206 0.188419 0
0.435107 0.190838 0
0.420072 0.193091 0
0.405115 0.195177 0
0.390249 0.197096 0
0.375491 0.198846 0
0.360853 0.200428 0
0.34635 0.201842 0
0.331995 0.203091 0
0.317804 0.204174 0
0.30379 0.205095 0
0.289966 0.205856 0
0.276346 0.20646 0
0.262943 0.206909 0
0.249771 0.207209 0
0.236843 0.207361 0
0.224171 0.207372 0
0.211768 0.207246 0
0.199646 0.206987 0
0.187818 0.2066 0
0.176295 0.206092 0
0.165089 0.205467 0
0.154212 0.204732 0
0.143673 0.203893 0
0.133484 0.202955 0
0.123656 0.201925 0
0.114197 0.200809 0
0.105119 0.199613 0
0.0964303 0.198343 0
0.0881399 0.197007 0
0.0802564 0.19561 0
0.0727882 0.194158 0
0.065743 0.192657 0
0.0591284 0.191114 0
0.0529514 0.189534 0
0.0472185 0.187923 0
0.0419361 0.186287 0
0.0371099 0.18463 0
0.0327451 0.182959 0
0.0288468 0.181276 0
0.0254192 0.179589 0
0.0224663 0.1779 0
0.0199917 0.176213 0
0.0179984 0.174533 0
0.0164889 0.172863 0
0.0154653 0.171205 0
0.0149291 0.169564 0
0.0148815 0.16794 0
0.0153232 0.166337 0
0.0162541 0.164755 0
0.0176739 0.163198 0
0.0195818 0.161664 0
0.0219764 0.160157 0
0.0248559 0.158675 0
0.0282179 0.157219 0
0.0320595 0.155789 0
0.0363774 0.154384 0
0.0411679 0.153003 0
0.0464265 0.151647 0
0.0521486 0.150312 0
0.0583287 0.148998 0
0.0649613 0.147702 0
0.07204 0.146423 0
0.0795582 0.145159 0
0.0875088 0.143907 0
0.0958841 0.142664 0
0.104676 0.141428 0
0.113876 0.140195 0
0.123476 0.138963 0
0.133465 0.137729 0
0.143835 0.13649 0
0.154575 0.135242 0
0.165674 0.133982 0
0.177122 0.132708 0
0.188907 0.131415 0
0.201018 0.130101 0
0.213443 0.128763 0
0.226168 0.127398 0
0.239182 0.126002 0
0.252472 0.124574 0
0.266024 0.12311 0
0.279824 0.121608 0
0.29386 0.120066 0
0.308116 0.118482 0
0.322578 0.116854 0
0.337231 0.11518 0
0.352062 0.113459 0
0.367054 0.11169 0
0.382193 0.109871 0
0.397463 0.108003 0
0.412849 0.106084 0
0.428335 0.104114 0
0.443905 0.102094 0
0.459543 0.100024 0
0.475233 0.0979042 0
0.49096 0.0957362 0
0.506707 0.093521 0
0.522457 0.09126 0
0.538196 0.0889551 0
0.553906 0.0866082 0
0.569572 0.0842217 0
0.585177 0.0817981 0
0.600705 0.0793402 0
0.61614 0.0768509 0
0.631467 0.0743336 0
0.646669 0.0717916 0
0.66173 0.0692286 0
0.676636 0.0666486 0
0.691371 0.0640554 0
0.705919 0.0614532 0
0.720265 0.0588465 0
0.734394 0.0562396 0
0.748293 0.053637 0
0.761945 0.0510436 0
0.775338 0.0484639 0
0.788457 0.0459029 0
0.801288 0.0433654 0
0.813819 0.0408563 0
0.826035 0.0383806 0
0.837925 0.0359431 0
0.849476 0.0335487 0
0.860676 0.0312024 0
0.871512 0.028909 0
0.881975 0.0266732 0
0.892052 0.0244997 0
0.901734 0.0223931 0
0.91101 0.0203579 0
0.91987 0.0183984 0
0.928306 0.016519 0
0.936308 0.0147236 0
0.943868 0.0130161 0
0.950978 0.0114003 0
0.957631 0.00987983 0
0.963819 0.00845792 0
0.969537 0.00713776 0
0.974777 0.00592229 0
0.979536 0.0048142 0
0.983806 0.00381598 0
0.987586 0.00292986 0
0.990869 0.00215781 0
0.993653 0.00150158 0
0.995935 0.000962639 0
0.997712 0.000542197 0
0.998983 0.000241203 0
0.999746 6.03348e-05 0
1 -1.83057e-33 0
POINT_DATA 201
SCALARS xi double64 1
LOOKUP_TABLE default
0
0.0314159
0.0628319
0.0942478
0.125664
0.15708
0.188496
0.219911
0.251327
0.282743
0.314159
0.345575
0.376991
0.408407
0.439823
0.471239
0.502655
0.534071
0.565487
0.596903
0.628319
0.659734
0.69115
0.722566
0.753982
0.785398
0.816814
0.84823
0.879646
0.911062
0.942478
0.973894
1.00531
1.03673
1.06814
1.09956
1.13097
1.16239
1.19381
1.22522
1.25664
1.28805
1.31947
1.35088
1.3823
1.41372
1.44513
1.47655
1.50796
1.53938
1.5708
1.60221
1.63363
1.66504
1.69646
1.72788
1.75929
1.79071
1.82212
1.85354
1.88496
1.91637
1.94779
1.9792
2.01062
2.04204
2.07345
2.10487
2.13628
2.1677
2.19911
2.23053
2.26195
2.29336
2.32478
2.35619
2.38761
2.41903
2.45044
2.48186
2.51327
2.54469
2.57611
2.60752
2.63894
2.67035
2.70177
2.73319
2.7646
2.79602
2.82743
2.85885
2.89027
2.92168
2.9531
2.98451
3.01593
3.04734
3.07876
3.11018
3.14159
3.17301
3.20442
3.23584
3.26726
3.29867
3.33009
3.3615
3.39292
3.42434
3.45575
3.48717
3.51858
3.55
3.58142
3.61283
3.64425
3.67566
3.70708
3.7385
3.76991
3.80133
3.83274
3.86416
3.89557
3.92699
3.95841
3.98982
4.02124
4.05265
4.08407
4.11549
4.1469
4.17832
4.20973
4.24115
4.27257
4.30398
4.3354
4.36681
4.39823
4.42965
4.46106
4.49248
4.52389
4.55531
4.58673
4.61814
4.64956
4.68097
4.71239
4.7438
4.77522
4.80664
4.83805
4.86947
4.90088
4.9323
4.96372
4.99513
5.02655
5.05796
5.08938
5.1208
5.15221
5.18363
5.21504
5.24646
5.27788
5.30929
5.34071
5.37212
5.40354
5.43496
5.46637
5.49779
5.5292
5.56062
5.59203
5.62345
5.65487
5.68628
5.7177
5.74911
5.78053
5.81195
5.84336
5.87478
5.90619
5.93761
5.96903
6.00044
6.03186
6.06327
6.09469
6.12611
6.15752
6.18894
6.22035
6.25177
6.28319