# vtk DataFile Version 2.0
Airfoil Example
ASCII
DATASET STRUCTURED_GRID
DIMENSIONS 10 1 1
POINTS 10 Float64
1 2 0
1 2 0
1 2 0
1 2 0
1 2 0
1 2 0
1 2 0
1 2 0
1 2 0
1 2 0
POINT_DATA 10
SCALARS xi Float64 1
LOOKUP_TABLE default
0
0
-1.83981e+12
4.56599e-41
-1.83981e+12
4.56599e-41
-1.83989e+12
4.56599e-41
-1.84091e+12
4.56599e-41