# vtk DataFile Version 2.0
Airfoil Example
ASCII
DATASET STRUCTURED_GRID
DIMENSIONS 200 1 1
POINTS 200 Float64
0 0 0
-0.000249207 3.32233e-05 0
-0.00099656 0.00013281 0
-0.00224137 0.000298513 0
-0.00398234 0.000529918 0
-0.00621772 0.000826449 0
-0.00894535 0.00118737 0
-0.0121624 0.00161177 0
-0.0158658 0.0020986 0
-0.0200518 0.00264664 0
-0.0247163 0.00325452 0
-0.0298544 0.00392072 0
-0.0354613 0.00464358 0
-0.0415312 0.00542128 0
-0.0480581 0.00625188 0
-0.0550355 0.00713329 0
-0.0624565 0.00806328 0
-0.0703136 0.00903954 0
-0.0785991 0.0100596 0
-0.0873046 0.0111209 0
-0.0964215 0.0122207 0
-0.105941 0.0133562 0
-0.115853 0.0145247 0
-0.126148 0.015723 0
-0.136815 0.0169482 0
-0.147845 0.0181972 0
-0.159225 0.0194666 0
-0.170946 0.0207534 0
-0.182994 0.0220541 0
-0.195358 0.0233653 0
-0.208026 0.0246838 0
-0.220986 0.0260061 0
-0.234223 0.0273287 0
-0.247725 0.0286482 0
-0.261478 0.029961 0
-0.27547 0.0312637 0
-0.289685 0.0325529 0
-0.30411 0.0338251 0
-0.31873 0.0350769 0
-0.333531 0.0363049 0
-0.348497 0.0375056 0
-0.363615 0.0386759 0
-0.378869 0.0398125 0
-0.394243 0.0409121 0
-0.409723 0.0419718 0
-0.425293 0.0429883 0
-0.440937 0.0439588 0
-0.456641 0.0448804 0
-0.472387 0.0457503 0
-0.488161 0.0465659 0
-0.503947 0.0473247 0
-0.519728 0.048024 0
-0.535491 0.0486618 0
-0.551217 0.0492356 0
-0.566893 0.0497436 0
-0.582502 0.0501838 0
-0.598029 0.0505543 0
-0.613458 0.0508536 0
-0.628774 0.0510802 0
-0.643962 0.0512327 0
-0.659006 0.0513099 0
-0.673891 0.0513109 0
-0.688604 0.0512348 0
-0.703128 0.0510808 0
-0.71745 0.0508485 0
-0.731555 0.0505375 0
-0.745429 0.0501475 0
-0.759058 0.0496787 0
-0.77243 0.049131 0
-0.78553 0.0485048 0
-0.798345 0.0478007 0
-0.810863 0.0470192 0
-0.82307 0.0461611 0
-0.834956 0.0452274 0
-0.846508 0.0442194 0
-0.857715 0.0431382 0
-0.868565 0.0419853 0
-0.879047 0.0407623 0
-0.889152 0.0394711 0
-0.898869 0.0381134 0
-0.908188 0.0366914 0
-0.9171 0.0352073 0
-0.925597 0.0336633 0
-0.933669 0.032062 0
-0.941309 0.0304058 0
-0.948509 0.0286976 0
-0.955262 0.0269401 0
-0.961561 0.0251362 0
-0.9674 0.023289 0
-0.972774 0.0214016 0
-0.977675 0.0194771 0
-0.982101 0.0175189 0
-0.986046 0.0155303 0
-0.989507 0.0135147 0
-0.99248 0.0114756 0
-0.994962 0.00941649 0
-0.99695 0.00734102 0
-0.998443 0.00525275 0
-0.999439 0.00315532 0
-0.999938 0.00105238 0
-0.999938 -0.00105239 0
-0.999439 -0.00315532 0
-0.998443 -0.00525274 0
-0.99695 -0.00734101 0
-0.994962 -0.00941649 0
-0.99248 -0.0114756 0
-0.989507 -0.0135147 0
-0.986046 -0.0155303 0
-0.982101 -0.0175189 0
-0.977675 -0.0194771 0
-0.972774 -0.0214016 0
-0.9674 -0.023289 0
-0.961561 -0.0251362 0
-0.955262 -0.0269401 0
-0.948509 -0.0286976 0
-0.941309 -0.0304058 0
-0.933669 -0.0320619 0
-0.925597 -0.0336633 0
-0.9171 -0.0352073 0
-0.908188 -0.0366914 0
-0.898869 -0.0381134 0
-0.889152 -0.0394711 0
-0.879047 -0.0407623 0
-0.868565 -0.0419853 0
-0.857715 -0.0431382 0
-0.846508 -0.0442194 0
-0.834956 -0.0452274 0
-0.82307 -0.0461611 0
-0.810863 -0.0470191 0
-0.798345 -0.0478007 0
-0.78553 -0.0485048 0
-0.77243 -0.049131 0
-0.759059 -0.0496786 0
-0.745429 -0.0501475 0
-0.731555 -0.0505375 0
-0.71745 -0.0508485 0
-0.703128 -0.0510808 0
-0.688604 -0.0512348 0
-0.673891 -0.0513109 0
-0.659006 -0.0513099 0
-0.643962 -0.0512327 0
-0.628774 -0.0510802 0
-0.613458 -0.0508536 0
-0.598029 -0.0505543 0
-0.582502 -0.0501838 0
-0.566893 -0.0497436 0
-0.551217 -0.0492356 0
-0.535491 -0.0486618 0
-0.519729 -0.048024 0
-0.503947 -0.0473247 0
-0.488161 -0.046566 0
-0.472387 -0.0457504 0
-0.456641 -0.0448804 0
-0.440937 -0.0439588 0
-0.425293 -0.0429883 0
-0.409723 -0.0419717 0
-0.394243 -0.0409121 0
-0.378869 -0.0398125 0
-0.363615 -0.0386759 0
-0.348497 -0.0375056 0
-0.333531 -0.0363048 0
-0.31873 -0.0350769 0
-0.30411 -0.0338251 0
-0.289685 -0.0325529 0
-0.27547 -0.0312637 0
-0.261478 -0.029961 0
-0.247725 -0.0286482 0
-0.234223 -0.0273287 0
-0.220986 -0.0260061 0
-0.208026 -0.0246838 0
-0.195358 -0.0233653 0
-0.182994 -0.0220541 0
-0.170946 -0.0207534 0
-0.159225 -0.0194666 0
-0.147845 -0.0181972 0
-0.136815 -0.0169483 0
-0.126147 -0.015723 0
-0.115853 -0.0145247 0
-0.105941 -0.0133562 0
-0.0964214 -0.0122207 0
-0.0873045 -0.0111209 0
-0.078599 -0.0100596 0
-0.0703136 -0.00903954 0
-0.0624565 -0.00806328 0
-0.0550355 -0.00713328 0
-0.0480581 -0.00625188 0
-0.0415312 -0.00542128 0
-0.0354613 -0.00464358 0
-0.0298544 -0.00392072 0
-0.0247163 -0.00325452 0
-0.0200519 -0.00264664 0
-0.0158659 -0.0020986 0
-0.0121625 -0.00161177 0
-0.00894535 -0.00118737 0
-0.00621775 -0.00082645 0
-0.00398234 -0.00052992 0
-0.00224137 -0.000298514 0
-0.00099656 -0.000132809 0
-0.000249207 -3.32228e-05 0
0 -1.01903e-15 0
POINT_DATA 200
SCALARS xi Float64 1
LOOKUP_TABLE default
0
0.0315738
0.0631476
0.0947214
0.126295
0.157869
0.189443
0.221017
0.25259
0.284164
0.315738
0.347312
0.378886
0.410459
0.442033
0.473607
0.505181
0.536755
0.568328
0.599902
0.631476
0.66305
0.694624
0.726197
0.757771
0.789345
0.820919
0.852492
0.884066
0.91564
0.947214
0.978788
1.01036
1.04194
1.07351
1.10508
1.13666
1.16823
1.1998
1.23138
1.26295
1.29453
1.3261
1.35767
1.38925
1.42082
1.45239
1.48397
1.51554
1.54712
1.57869
1.61026
1.64184
1.67341
1.70498
1.73656
1.76813
1.79971
1.83128
1.86285
1.89443
1.926
1.95758
1.98915
2.02072
2.0523
2.08387
2.11544
2.14702
2.17859
2.21017
2.24174
2.27331
2.30489
2.33646
2.36803
2.39961
2.43118
2.46276
2.49433
2.5259
2.55748
2.58905
2.62063
2.6522
2.68377
2.71535
2.74692
2.77849
2.81007
2.84164
2.87322
2.90479
2.93636
2.96794
2.99951
3.03108
3.06266
3.09423
3.12581
3.15738
3.18895
3.22053
3.2521
3.28367
3.31525
3.34682
3.3784
3.40997
3.44154
3.47312
3.50469
3.53627
3.56784
3.59941
3.63099
3.66256
3.69413
3.72571
3.75728
3.78886
3.82043
3.852
3.88358
3.91515
3.94672
3.9783
4.00987
4.04145
4.07302
4.10459
4.13617
4.16774
4.19931
4.23089
4.26246
4.29404
4.32561
4.35718
4.38876
4.42033
4.45191
4.48348
4.51505
4.54663
4.5782
4.60977
4.64135
4.67292
4.7045
4.73607
4.76764
4.79922
4.83079
4.86236
4.89394
4.92551
4.95709
4.98866
5.02023
5.05181
5.08338
5.11495
5.14653
5.1781
5.20968
5.24125
5.27282
5.3044
5.33597
5.36755
5.39912
5.43069
5.46227
5.49384
5.52541
5.55699
5.58856
5.62014
5.65171
5.68328
5.71486
5.74643
5.778
5.80958
5.84115
5.87273
5.9043
5.93587
5.96745
5.99902
6.03059
6.06217
6.09374
6.12532
6.15689
6.18846
6.22004
6.25161
6.28319