# vtk DataFile Version 2.0
Airfoil Example
ASCII
DATASET STRUCTURED_GRID
DIMENSIONS 11 1 1
POINTS 11 double64
1 0 0
0.910675 0.0432744 0
0.674145 0.134086 0
0.374942 0.197723 0
0.123059 0.200389 0
0.014919 0.169508 0
0.0954149 0.141112 0
0.336864 0.114038 0
0.646449 0.0711771 0
0.901668 0.022221 0
1 -1.83026e-33 0
POINT_DATA 11
SCALARS PHASESHIFT_SENS double64 1
LOOKUP_TABLE default
0
0.671475
2.41486
4.55266
6.29811
7.02641
6.45346
4.74988
2.54338
0.70938
3.00883e-33
