# vtk DataFile Version 2.0
Airfoil Example
ASCII
DATASET STRUCTURED_GRID
DIMENSIONS 201 1 1
POINTS 201 double64
1 0 0
0.99977 0.000118184 0
0.999081 0.000472435 0
0.997933 0.00106185 0
0.996327 0.00188495 0
0.994265 0.00293962 0
0.991748 0.00422322 0
0.988779 0.00573248 0
0.985361 0.00746358 0
0.981496 0.00941217 0
0.977188 0.0115733 0
0.97244 0.0139416 0
0.967258 0.016511 0
0.961646 0.0192752 0
0.955609 0.0222272 0
0.949152 0.0253597 0
0.942281 0.0286648 0
0.935002 0.0321343 0
0.927322 0.0357598 0
0.919248 0.0395322 0
0.910787 0.0434423 0
0.901947 0.0474805 0
0.892736 0.051637 0
0.883162 0.0559018 0
0.873234 0.0602646 0
0.86296 0.0647148 0
0.852351 0.069242 0
0.841416 0.0738354 0
0.830164 0.0784842 0
0.818607 0.0831775 0
0.806754 0.0879045 0
0.794617 0.0926544 0
0.782207 0.0974163 0
0.769534 0.102179 0
0.756612 0.106933 0
0.743451 0.111667 0
0.730063 0.116371 0
0.716462 0.121035 0
0.702659 0.125648 0
0.688668 0.130202 0
0.674501 0.134687 0
0.660171 0.139093 0
0.645692 0.143412 0
0.631078 0.147637 0
0.616342 0.151758 0
0.601497 0.155768 0
0.586559 0.15966 0
0.57154 0.163427 0
0.556454 0.167063 0
0.541317 0.170563 0
0.526142 0.17392 0
0.510944 0.17713 0
0.495736 0.180189 0
0.480535 0.183092 0
0.465353 0.185836 0
0.450206 0.188419 0
0.435107 0.190838 0
0.420072 0.193091 0
0.405115 0.195177 0
0.390249 0.197096 0
0.375491 0.198846 0
0.360853 0.200428 0
0.34635 0.201842 0
0.331995 0.203091 0
0.317804 0.204174 0
0.30379 0.205095 0
0.289966 0.205856 0
0.276346 0.20646 0
0.262943 0.206909 0
0.249771 0.207209 0
0.236843 0.207361 0
0.224171 0.207372 0
0.211768 0.207246 0
0.199646 0.206987 0
0.187818 0.2066 0
0.176295 0.206092 0
0.165089 0.205467 0
0.154212 0.204732 0
0.143673 0.203893 0
0.133484 0.202955 0
0.123656 0.201925 0
0.114197 0.200809 0
0.105119 0.199613 0
0.0964303 0.198343 0
0.0881399 0.197007 0
0.0802564 0.19561 0
0.0727882 0.194158 0
0.065743 0.192657 0
0.0591284 0.191114 0
0.0529514 0.189534 0
0.0472185 0.187923 0
0.0419361 0.186287 0
0.0371099 0.18463 0
0.0327451 0.182959 0
0.0288468 0.181276 0
0.0254192 0.179589 0
0.0224663 0.1779 0
0.0199917 0.176213 0
0.0179984 0.174533 0
0.0164889 0.172863 0
0.0154653 0.171205 0
0.0149291 0.169564 0
0.0148815 0.16794 0
0.0153232 0.166337 0
0.0162541 0.164755 0
0.0176739 0.163198 0
0.0195818 0.161664 0
0.0219764 0.160157 0
0.0248559 0.158675 0
0.0282179 0.157219 0
0.0320595 0.155789 0
0.0363774 0.154384 0
0.0411679 0.153003 0
0.0464265 0.151647 0
0.0521486 0.150312 0
0.0583287 0.148998 0
0.0649613 0.147702 0
0.07204 0.146423 0
0.0795582 0.145159 0
0.0875088 0.143907 0
0.0958841 0.142664 0
0.104676 0.141428 0
0.113876 0.140195 0
0.123476 0.138963 0
0.133465 0.137729 0
0.143835 0.13649 0
0.154575 0.135242 0
0.165674 0.133982 0
0.177122 0.132708 0
0.188907 0.131415 0
0.201018 0.130101 0
0.213443 0.128763 0
0.226168 0.127398 0
0.239182 0.126002 0
0.252472 0.124574 0
0.266024 0.12311 0
0.279824 0.121608 0
0.29386 0.120066 0
0.308116 0.118482 0
0.322578 0.116854 0
0.337231 0.11518 0
0.352062 0.113459 0
0.367054 0.11169 0
0.382193 0.109871 0
0.397463 0.108003 0
0.412849 0.106084 0
0.428335 0.104114 0
0.443905 0.102094 0
0.459543 0.100024 0
0.475233 0.0979042 0
0.49096 0.0957362 0
0.506707 0.093521 0
0.522457 0.09126 0
0.538196 0.0889551 0
0.553906 0.0866082 0
0.569572 0.0842217 0
0.585177 0.0817981 0
0.600705 0.0793402 0
0.61614 0.0768509 0
0.631467 0.0743336 0
0.646669 0.0717916 0
0.66173 0.0692286 0
0.676636 0.0666486 0
0.691371 0.0640554 0
0.705919 0.0614532 0
0.720265 0.0588465 0
0.734394 0.0562396 0
0.748293 0.053637 0
0.761945 0.0510436 0
0.775338 0.0484639 0
0.788457 0.0459029 0
0.801288 0.0433654 0
0.813819 0.0408563 0
0.826035 0.0383806 0
0.837925 0.0359431 0
0.849476 0.0335487 0
0.860676 0.0312024 0
0.871512 0.028909 0
0.881975 0.0266732 0
0.892052 0.0244997 0
0.901734 0.0223931 0
0.91101 0.0203579 0
0.91987 0.0183984 0
0.928306 0.016519 0
0.936308 0.0147236 0
0.943868 0.0130161 0
0.950978 0.0114003 0
0.957631 0.00987983 0
0.963819 0.00845792 0
0.969537 0.00713776 0
0.974777 0.00592229 0
0.979536 0.0048142 0
0.983806 0.00381598 0
0.987586 0.00292986 0
0.990869 0.00215781 0
0.993653 0.00150158 0
0.995935 0.000962639 0
0.997712 0.000542197 0
0.998983 0.000241203 0
0.999746 6.03348e-05 0
1 -1.83057e-33 0
POINT_DATA 201
SCALARS PHASESHIFT_SENS double64 1
LOOKUP_TABLE default
0
2.82574e-06
1.11301e-05
2.43969e-05
4.17744e-05
6.20882e-05
8.3861e-05
0.000105341
0.000124546
0.000139331
0.000147516
0.000147175
0.000137396
0.000120746
0.000110948
0.000138567
0.000217762
0.00034031
0.000501695
0.000701998
0.000942967
0.00122685
0.00155599
0.00193258
0.00235865
0.00283592
0.0033658
0.00394935
0.00458725
0.00527978
0.00602677
0.00682764
0.00768135
0.00858641
0.00954089
0.0105424
0.011588
0.0126746
0.0137984
0.0149554
0.0161411
0.0173507
0.0185791
0.0198209
0.0210704
0.022322
0.0235694
0.0248066
0.0260274
0.0272255
0.0283947
0.0295288
0.0306217
0.0316675
0.0326603
0.0335948
0.0344655
0.0352676
0.0359965
0.0366479
0.0372179
0.0377033
0.0381009
0.0384084
0.0386237
0.0387453
0.0387722
0.0387038
0.0385402
0.0382818
0.0379297
0.0374851
0.03695
0.0363267
0.0356178
0.0348266
0.0339563
0.0330108
0.0319941
0.0309105
0.0297645
0.0285607
0.0273039
0.0259992
0.0246514
0.0232657
0.0218471
0.0204007
0.0189314
0.0174443
0.0159444
0.0144367
0.0129261
0.011418
0.00991825
0.00843366
0.00697361
0.00555312
0.00420205
0.00299501
0.00215033
0.00210742
0.00286759
0.00396898
0.00517685
0.00641273
0.00764681
0.00886556
0.0100618
0.0112312
0.012371
0.0134793
0.0145545
0.0155954
0.016601
0.0175703
0.0185027
0.0193971
0.0202529
0.0210693
0.0218453
0.0225801
0.0232729
0.0239227
0.0245286
0.0250895
0.0256045
0.0260726
0.0264927
0.026864
0.0271855
0.0274564
0.0276758
0.027843
0.0279575
0.0280188
0.0280266
0.0279808
0.0278814
0.0277286
0.0275229
0.0272649
0.0269557
0.0265962
0.026188
0.0257325
0.0252317
0.0246877
0.0241027
0.0234794
0.0228205
0.022129
0.0214079
0.0206605
0.0198902
0.0191006
0.0182952
0.0174777
0.0166517
0.0158209
0.0149889
0.0141593
0.0133357
0.0125213
0.0117194
0.0109331
0.0101652
0.00941843
0.00869523
0.00799777
0.00732799
0.00668755
0.00607786
0.00550001
0.00495482
0.00444284
0.00396435
0.00351932
0.00310752
0.00272843
0.00238133
0.00206527
0.00177913
0.00152161
0.00129129
0.00108662
0.000905955
0.000747601
0.000609827
0.000490897
0.000389096
0.000302756
0.000230284
0.000170183
0.000121077
8.17303e-05
5.10644e-05
2.81758e-05
1.23476e-05
3.06057e-06
2.86037e-35
